/*--------------------------------*- C++ -*----------------------------------*\
| =========                 |                                                 |
| \\      /  F ield         | OpenFOAM: The Open Source CFD Toolbox           |
|  \\    /   O peration     | Version:  2406                                  |
|   \\  /    A nd           | Website:  www.openfoam.com                      |
|    \\/     M anipulation  |                                                 |
\*---------------------------------------------------------------------------*/
FoamFile
{
    version     2.0;
    format      ascii;
    arch        "LSB;label=32;scalar=64";
    class       volScalarField;
    location    "52";
    object      hwater;
}
// * * * * * * * * * * * * * * * * * * * * * * * * * * * * * * * * * * * * * //

dimensions      [0 1 0 0 0 0 0];

internalField   nonuniform List<scalar> 
40483
(
35.4282
36.0783
35.4837
37.2385
35.6935
37.8741
37.9784
36.5955
38.7932
38.911
37.862
36.2987
39.6414
39.8561
39.1471
37.3988
40.4287
40.2105
38.9651
36.994
41.3773
41.6284
39.8669
38.6233
41.9314
42.1958
42.2534
41.374
39.0865
42.8914
43.0825
43.8159
42.009
37.9401
41.0521
43.5947
44.0735
44.309
44.5937
43.4001
39.3695
41.6003
44.4887
45.419
45.7101
43.7377
38.5811
40.842
42.8711
45.3007
45.8192
46.2324
46.3274
46.3136
45.0657
40.5289
41.6053
42.7739
46.1858
46.8469
47.0538
47.1772
47.1605
45.1675
41.1079
43.7645
46.9564
47.5927
47.777
47.8191
47.8364
46.0048
39.8803
42.8966
43.8937
47.7539
47.6388
48.4118
48.4203
48.4763
48.4959
46.9926
45.9142
41.101
43.6056
45.1432
48.3011
48.6276
48.9715
49.0081
49.0278
49.0841
47.3288
46.7272
42.9055
40.5766
44.9392
45.5753
48.8767
48.6836
49.1022
49.4362
49.4642
49.5204
49.5565
49.1903
48.0161
47.1805
43.4253
41.6583
45.7776
46.7713
49.2561
49.2771
49.6495
49.8057
49.8741
49.9114
50.0175
49.6756
47.9861
42.7441
44.3439
41.5339
46.975
45.7689
47.3607
49.6849
49.1996
49.859
49.9942
50.1277
50.1702
50.2473
50.0482
50.3126
48.5723
43.3078
45.1639
44.1292
42.0369
47.5804
46.615
48.2957
50.0272
49.5983
50.117
50.4304
50.456
50.5068
50.5475
50.3801
50.6808
48.7134
42.784
45.685
44.6656
41.783
47.3335
48.3176
46.4271
48.6405
50.356
49.3691
49.9444
50.4174
50.6623
50.6792
50.8011
50.6639
50.8035
42.4534
45.4933
44.3475
47.7365
48.5895
46.8184
49.1474
50.646
49.476
50.0777
50.4201
50.6218
50.9477
50.9203
51.0595
50.8836
51.0677
43.1055
45.9007
44.9546
47.4196
48.2898
49.0345
46.5404
49.2808
50.8839
49.7904
50.2719
50.0836
50.5477
50.808
51.0503
50.9966
51.0965
51.2914
51.0908
51.2865
41.9291
45.7345
44.8934
47.5726
48.4243
49.0719
46.6648
49.6159
51.1083
50.004
50.2471
50.4576
50.7357
51.2314
51.1488
51.2638
51.4587
51.2689
51.4478
42.0455
46.2115
44.1297
45.8356
47.1411
48.039
48.7752
49.301
49.5832
51.2824
50.1177
50.3081
50.4332
50.8193
51.3581
51.3375
51.0421
51.4098
51.6065
51.4196
51.6136
43.0479
40.7783
46.3438
44.1253
46.089
46.972
48.0231
48.7519
49.182
49.6786
51.4516
50.2893
50.0902
50.4958
50.6785
51.4836
51.4459
51.111
51.6771
51.6693
51.5576
51.6726
42.5386
41.4682
43.1222
44.6755
46.7933
45.5929
47.1733
48.2871
47.6292
48.5445
48.9446
49.2441
49.8842
49.4554
51.5739
50.2779
50.4432
50.6235
51.5974
51.4007
51.579
50.9879
51.2795
51.8
51.758
51.7834
40.956
42.73
44.2434
47.1024
45.8241
48.1861
47.6025
48.5878
48.7951
49.0284
49.8487
49.4104
51.7001
50.2424
50.6378
51.6348
51.4851
51.6538
51.0842
50.792
51.2946
51.8171
51.8909
51.7952
51.8884
51.7965
39.9336
41.6272
43.2909
44.7387
46.888
46.3352
45.4221
48.3925
47.8855
48.8089
49.0138
49.6737
50.0312
49.5011
49.1902
50.4173
51.7464
51.6075
51.414
51.7586
51.0102
51.2201
50.7212
51.8815
51.975
51.8671
51.9725
51.891
39.4643
41.1526
42.7894
44.597
47.1681
46.2036
45.727
48.3001
47.9485
48.5195
48.7762
49.6818
49.996
49.3442
49.1678
50.3797
51.6709
51.413
51.8423
51.0956
50.8416
51.286
50.5299
51.9503
52.0572
51.932
51.9625
52.0448
38.9653
39.4683
40.1459
41.7232
43.1693
43.9987
45.2479
46.8662
47.6718
46.4273
45.6959
48.499
48.7619
49.5351
49.8231
50.1783
49.3673
48.9735
51.6146
51.7769
51.4964
51.9352
51.8443
51.0296
51.2386
50.7713
50.4793
51.9956
52.0808
52.1161
52.041
52.0853
39.6319
41.2092
42.5905
44.2584
45.2672
47.032
47.7317
46.1519
48.2594
48.5267
49.542
49.8195
50.1518
49.2422
48.942
51.6908
51.8253
51.4589
52.0056
51.9325
51.1189
50.8715
51.3255
50.5983
50.2977
52.0795
52.1513
52.1909
52.1454
40.1111
41.6512
42.9389
44.8597
43.8044
45.6565
46.7976
47.4006
47.9755
46.3539
48.3053
48.5152
49.6769
49.4029
49.9709
49.2709
49.0726
48.7181
51.6569
51.7948
51.9196
51.5424
51.9991
52.0751
51.0519
51.2784
50.8047
50.5286
50.2523
52.1156
52.2012
52.2426
52.1885
39.6287
41.1303
42.3716
45.1556
44.1835
46.0424
45.5723
46.952
47.5367
47.8373
46.2966
48.0378
48.2752
49.6882
49.3747
49.9702
49.1356
49.015
48.7221
51.7294
51.8601
51.9773
51.5036
52.0795
52.1241
50.892
51.1274
51.3755
50.6287
50.3607
50.0971
52.1986
52.2592
52.3052
52.2482
52.2528
40.1569
41.4966
42.5397
45.1312
43.892
44.8087
46.1901
45.9015
47.328
46.7069
48.0139
48.2591
49.8348
49.5902
49.2191
49.455
49.1093
48.8809
48.6016
51.6967
51.8314
51.9476
52.0535
51.5855
52.1008
52.1984
50.8249
51.2527
51.0529
51.3509
50.5612
50.2804
50.0516
52.3112
52.3503
52.3195
52.2994
39.7162
40.9776
43.2482
41.8
45.5901
44.2899
45.0925
46.5395
45.9336
47.4286
46.8036
47.7466
48.0259
48.4282
49.8904
49.6078
49.1883
49.4015
48.9475
48.8376
48.6899
51.7726
51.9035
52.0107
52.1026
51.557
52.175
52.2475
50.665
50.9159
51.2983
51.1202
51.452
50.3796
50.1196
52.3649
52.4048
52.3521
52.3594
40.1948
41.23
43.4055
42.0668
45.5501
43.976
44.7978
45.1088
46.6377
46.33
47.16
47.7792
48.0507
48.4098
49.8377
49.4885
49.7098
49.2884
49.0573
48.9267
48.5896
51.8783
51.7383
51.9945
52.0878
52.1709
51.6335
52.2324
52.32
50.609
50.8683
51.234
51.419
51.0958
50.3197
49.9958
52.4145
52.4451
52.4242
52.4086
39.7378
40.9106
43.1645
41.4152
42.6162
45.7825
44.0277
45.024
45.5554
46.9859
46.4259
47.2384
47.5401
48.2596
47.8619
49.4664
49.6823
49.2685
49.0544
48.7852
48.6236
51.9614
51.7981
52.0695
52.1515
52.2186
51.6138
52.3018
52.3563
50.7189
50.4434
50.9836
51.2201
51.5073
50.134
49.9924
52.4624
52.5004
52.4593
52.463
40.1784
43.548
41.3469
42.5235
46.1627
44.4403
44.8869
45.4975
45.7266
47.0696
46.8182
47.5991
48.305
47.9405
49.5538
49.3603
49.8133
49.1635
48.9372
48.8014
48.489
52.062
51.9233
51.7184
52.1483
52.2135
52.2927
52.4239
50.6706
50.3994
50.9354
51.2869
51.519
50.101
52.5073
52.5406
52.521
52.5091
39.6618
43.399
41.9425
40.6882
42.9086
46.3082
44.45
45.2542
45.6047
46.0971
47.3811
46.8953
48.1703
47.7756
49.5294
49.3454
49.761
49.1653
48.9551
48.6832
48.5334
52.1574
52.001
51.6861
52.2164
52.2763
52.3308
52.4646
50.7639
50.5156
50.243
51.0678
51.2342
51.4335
49.9649
52.5623
52.5972
52.557
52.5633
39.9337
43.5405
41.7879
40.7458
42.9174
46.6492
44.0803
44.911
45.2751
45.9107
46.3206
47.4796
47.2441
48.2648
47.9213
49.6137
49.429
49.2524
49.827
49.0704
48.8301
48.6928
48.4397
52.1689
52.2296
52.0029
52.1021
51.7485
52.2816
52.4069
52.5361
52.4639
50.6441
50.4859
50.2109
51.0334
51.3575
51.4742
49.9553
52.6124
52.639
52.6188
52.6205
39.3463
43.7405
43.2662
41.2605
42.0862
40.348
42.5876
46.6649
44.1396
44.9623
45.6503
46.2431
45.9351
47.2918
48.1739
47.8359
49.5822
49.4155
49.2299
49.7655
49.1189
48.8205
48.5486
52.2533
52.3214
51.9172
52.1112
52.1444
51.6168
52.3463
52.4186
52.586
52.5526
50.648
50.337
50.0638
51.2266
50.827
51.3768
49.8429
52.6709
52.6996
52.6566
52.6786
39.402
43.4523
41.1152
41.7761
39.8375
40.6208
42.6701
46.9675
44.5578
43.7546
45.3839
45.7075
46.4711
46.277
47.5709
48.3153
48.019
49.4843
49.6654
49.3036
49.0706
48.93
48.6513
48.5095
52.3164
52.2284
52.3528
52.0022
52.1804
51.5758
52.4911
52.6443
52.5961
50.4491
50.2991
50.0482
51.226
50.7911
49.8446
52.7178
52.7389
52.7157
52.7404
43.4088
41.3286
41.9262
39.5359
40.4496
42.3236
43.0435
46.8604
44.6534
43.6427
45.4879
46.0964
46.3774
47.6489
48.2372
47.922
49.4619
49.631
49.2966
49.1258
48.923
48.5987
52.3888
52.258
52.4201
51.9796
52.132
52.1929
51.6422
52.5682
52.5181
52.7025
52.6855
50.4182
50.1529
49.9464
51.4425
50.9974
50.5756
49.7724
52.7838
52.8055
52.7476
52.7999
41.0857
41.6988
39.6941
40.0581
40.7039
42.2851
43.034
47.0018
44.2641
45.154
43.8294
43.2967
45.9088
46.1911
46.7208
47.5964
48.3804
47.9606
49.3753
49.5307
49.6866
49.2161
49.0342
48.843
48.7025
52.4114
52.3449
52.489
52.1341
51.8427
52.19
52.2846
52.6208
52.5967
52.7273
52.7266
50.258
50.1426
49.9393
51.4413
50.9598
50.5429
49.7863
52.8333
52.843
52.8073
52.8715
41.1361
41.3712
41.924
39.4125
39.9649
40.5652
42.4798
42.7805
47.2881
44.2937
45.3633
43.5728
43.1849
46.0407
46.5641
46.8123
47.4907
47.7928
48.3311
48.1343
49.3623
49.5102
49.6568
49.2156
49.0497
48.8909
48.6183
52.4957
52.3606
52.5459
52.2056
51.8684
52.2816
52.6896
52.6352
52.8063
52.8153
50.2364
50.0282
49.8542
51.6712
51.1688
50.7151
50.362
49.7177
52.9055
52.9142
52.8411
52.9301
40.8109
41.1845
41.8219
39.605
40.2172
42.3501
42.9034
47.2762
44.539
44.0203
45.3263
45.8257
43.2741
43.7237
46.3774
46.6286
47.0667
47.7034
48.461
48.1425
49.4291
49.2883
49.5796
49.1394
48.99
48.8572
48.6653
52.544
52.5316
52.4299
52.6087
52.3384
52.1446
52.006
52.353
52.7291
52.6375
52.697
52.8515
52.8593
50.1015
50.0092
49.8316
51.716
51.094
50.6611
50.3209
49.7409
52.95
52.9466
52.909
53.01
40.8329
41.4251
42.0537
39.3812
40.0958
42.5257
42.7812
47.4109
44.9611
44.3664
44.1121
45.7996
46.0001
43.0129
43.706
46.4982
46.8908
47.222
47.7786
48.437
47.9901
48.3058
49.4227
49.2862
49.561
49.1466
49.0051
48.9334
48.768
48.5549
52.6043
52.6055
52.5016
52.4268
52.6349
52.4451
52.1711
52.026
52.8107
52.6936
52.7272
52.9223
52.964
50.0782
49.8975
51.9421
51.4936
50.8178
51.2102
50.4484
50.1757
49.6967
53.0266
53.019
52.9439
53.0656
40.4745
41.4084
42.0522
39.6288
42.3599
47.6222
45.1799
44.4619
43.9963
46.0941
46.3327
42.8965
43.5174
46.8041
47.1742
48.0359
48.3048
49.4875
49.3554
49.2195
49.6154
49.0757
48.9306
48.7586
48.5535
52.631
52.6443
52.5487
52.5025
52.6915
52.4622
52.5289
52.2337
52.8391
52.7212
52.7875
52.9761
53.0009
53.0101
49.9667
49.8794
52.0743
51.5372
50.7481
50.9612
50.3681
50.126
49.7321
53.064
53.0446
53.0067
53.1544
40.4576
41.0908
41.7947
39.4175
42.4888
47.7487
44.8108
45.6796
44.3688
44.1376
46.0876
46.4388
43.1313
43.6996
46.9499
47.3866
48.1805
47.9402
48.4295
49.5051
49.3659
49.2246
49.5813
49.0857
48.8412
49.0121
48.6613
52.6918
52.7007
52.6173
52.3636
52.573
52.6165
52.9236
52.7842
53.028
53.1009
53.0863
49.9948
49.8061
52.0399
51.7834
51.2389
50.5097
50.9592
50.1977
49.7087
53.1419
53.1141
53.205
53.1937
40.1112
40.7176
41.2165
41.8449
39.6987
42.245
47.6461
44.9624
45.4471
44.49
44.1453
46.522
46.7582
42.9987
43.6168
43.9961
47.2614
48.1597
48.0223
48.4228
49.4495
49.2999
49.156
49.6379
48.8408
49.0118
48.6498
52.7233
52.7352
52.6556
52.436
52.5617
52.6311
52.6465
52.9442
52.8289
53.0784
53.1042
53.1965
53.1521
49.9439
49.7775
52.1867
51.7787
51.2714
50.4668
50.6863
50.127
53.1667
53.1269
53.3045
53.2808
40.3936
41.0319
41.5789
39.4366
42.2949
47.7856
44.7527
45.7149
44.3811
46.5467
46.8467
43.3146
42.6335
43.9263
44.131
47.3575
48.2124
48.0296
48.3172
48.5369
49.4731
49.2915
49.1511
49.6274
48.7466
48.9298
49.0785
52.7829
52.7174
52.7874
52.3694
52.6318
52.6984
52.7097
53.0257
52.8988
52.8262
53.1966
53.3086
53.2095
53.1843
49.8629
50.0047
49.7961
52.0358
51.5606
51.0186
50.2775
50.717
50.1491
53.2412
53.3661
53.3406
53.3036
40.3756
40.7119
41.2691
41.588
39.6145
41.9067
47.954
47.74
44.7889
46.2436
45.5088
44.5386
46.876
47.1335
43.2511
42.6232
43.9766
44.4352
47.5683
48.1408
48.3048
48.5204
49.4118
49.5552
49.3346
49.2123
49.7037
48.7505
48.9226
49.0674
52.7569
52.8259
52.4685
52.7124
52.599
52.7348
52.7536
53.0083
52.9367
52.8968
53.1975
53.3053
53.424
53.317
53.2464
49.8268
49.9624
49.765
52.0236
51.6902
51.0782
50.2412
50.5571
50.0366
53.4699
53.4329
53.3823
40.0254
40.69
41.0746
39.2038
41.9497
48.029
47.8577
45.0286
46.4385
45.8496
46.8062
47.1407
42.9153
43.4656
42.3149
44.2677
43.7454
44.6075
47.5695
48.1925
48.3921
48.6316
49.4275
49.5855
49.2796
49.2075
49.6753
48.8405
48.9918
49.1358
52.8116
52.8871
52.4198
52.7655
52.6737
52.7898
52.8012
53.0448
52.9222
53.2979
53.1235
53.4223
53.5576
53.4155
53.3184
49.8661
52.2211
51.4606
50.8672
50.1078
50.351
50.64
50.0231
53.5449
53.5005
53.4512
53.3918
40.0686
40.4149
41.2134
39.3962
41.6391
47.984
48.1506
47.8525
44.8633
46.3308
45.7433
46.9646
47.3687
42.8805
43.3878
42.3805
44.2444
44.5369
43.8039
44.8377
47.7363
48.3469
48.6446
49.3589
49.4855
49.554
49.2875
49.7106
48.8556
48.9557
49.1193
52.844
52.9195
52.5267
52.7541
52.8205
52.6421
52.8241
52.8099
52.8366
52.9975
53.4136
53.2615
53.1541
53.5599
53.7045
53.495
49.8541
52.2802
51.4889
50.856
50.064
50.3025
50.5311
49.9361
53.6661
53.6025
53.5354
53.4669
39.8126
40.3399
40.9976
39.2602
41.7529
48.0376
48.217
47.9596
45.2809
46.7198
45.59
46.4388
47.2843
43.1355
42.6403
43.5924
42.2905
44.4638
43.9994
44.7848
45.0733
47.7659
48.4008
48.7783
48.5326
49.3754
49.4568
49.6038
49.2001
49.7899
49.6717
49.0123
52.8913
52.9814
52.4847
52.8093
52.8754
52.6931
52.864
52.8563
52.8743
53.0244
53.5484
53.3097
53.1029
53.7034
53.8661
53.7089
53.6022
52.1695
51.8071
51.0872
50.6382
49.9614
50.1122
50.3981
50.2107
53.7591
53.693
53.6177
53.5406
39.9703
40.5955
41.1959
38.8651
39.7093
42.0808
41.5223
48.1291
48.2034
47.9887
45.3164
46.8195
45.8744
46.5552
47.4213
43.1512
42.555
43.628
44.7304
44.3927
43.8979
45.0403
47.6491
47.9077
48.3078
48.8107
48.5779
49.3068
49.5091
49.5868
49.2016
49.8011
49.6999
48.9482
52.9084
53.0038
52.6022
52.8225
52.8749
52.9264
52.7795
52.9116
52.8855
53.7007
53.5551
53.2358
53.4372
53.137
53.858
54.0541
53.8292
53.627
52.3061
51.8259
50.9534
50.5554
49.919
50.0894
50.3288
50.2363
53.8888
53.8067
53.7149
40.5997
40.991
38.9686
39.6945
42.1594
41.6895
48.1701
48.1037
45.5507
47.2101
45.8058
46.2483
46.8523
42.9594
43.4382
42.6749
44.9469
44.6039
44.064
45.2649
47.7114
47.9437
48.2879
48.7243
48.5076
49.2853
49.4731
49.6382
49.1116
49.7501
49.8503
49.6821
48.9916
52.9598
53.0785
52.6246
52.893
52.9208
53.0024
52.8168
52.9514
52.933
53.8558
53.7245
53.279
53.4636
54.0282
54.0802
54.2145
53.8072
53.961
53.716
52.5092
52.1471
51.7069
51.0837
50.6603
50.3916
49.9576
50.1744
50.0298
53.9954
53.9095
53.8112
40.3536
41.1269
38.7149
39.3205
39.9679
41.9912
42.4822
41.6403
48.148
45.5197
47.3726
46.0698
46.3366
47.0909
46.8909
43.1245
43.4219
44.8811
45.2152
44.5216
43.9193
47.6189
47.8584
48.0627
48.3682
48.7553
48.6224
49.3549
49.1559
49.5229
49.6596
49.7649
49.8229
49.7279
48.8844
52.9731
53.1084
52.7595
52.9336
52.9887
53.0445
53.0356
52.9043
53.007
53.8667
54.0194
53.732
53.2692
53.3783
53.5923
54.1915
54.2333
54.4052
53.9075
54.0059
52.5648
52.1839
51.9633
51.4241
50.8691
50.5712
50.3454
49.9217
50.1797
50.0547
54.1339
54.027
53.914
40.4919
40.8658
41.4405
38.4116
38.9277
39.2713
39.8138
42.1029
42.5736
41.9122
48.2913
45.7295
47.2667
46.0178
46.6586
47.1791
47.0901
43.093
43.6018
45.0761
45.4333
44.1571
44.75
47.7212
47.859
48.1055
48.6351
49.3139
49.0661
49.4712
49.5955
49.7273
49.6475
49.8547
48.9134
53.0461
53.2059
52.8078
53.0023
53.0298
53.1339
53.1392
52.965
53.062
54.0003
54.1652
53.8923
53.3696
53.5859
54.371
54.2285
54.3854
54.5091
54.4835
54.1218
52.7377
52.4139
51.8994
51.5305
50.6654
50.9773
50.4334
50.2525
49.9682
50.1213
50.0289
54.2564
54.1444
54.0254
40.2767
40.8874
41.6093
38.1796
38.8122
39.4795
39.9769
42.3627
42.858
41.9108
48.3452
45.6844
47.4521
46.1763
46.716
47.3431
47.2513
43.4079
45.354
45.0135
44.0345
44.7409
47.7226
47.9089
48.0588
48.2459
48.5102
48.799
49.1991
49.3813
49.0853
49.5196
49.622
49.7668
49.7035
49.8288
53.271
52.9346
53.0644
53.1229
53.1477
53.2157
53.2217
53.1886
53.0637
54.047
54.131
54.3555
54.0319
53.8701
53.4485
53.7046
54.3618
54.4653
54.7132
54.701
54.1358
52.8189
52.4867
52.2193
51.3125
50.6294
50.8723
50.4252
50.2574
49.9408
50.1345
50.0838
54.4019
54.2717
40.3225
41.1228
40.5667
41.6601
38.242
39.0271
38.5191
39.36
39.8457
42.5287
42.8429
42.0906
45.852
47.615
46.0569
46.4629
47.0367
47.2958
43.4398
45.5036
45.1733
44.2117
43.7081
44.9858
44.5008
47.8335
47.9812
48.1074
48.2689
48.5676
48.8248
49.209
49.3239
48.9597
49.4991
49.5947
49.686
49.7552
49.8663
53.2464
53.4152
53.0337
53.1525
53.3533
53.377
53.3396
53.1745
54.1803
54.5129
54.1984
53.9821
53.6953
54.3865
54.6381
54.8462
54.8191
54.7742
54.2631
52.9993
52.7479
52.2822
51.4443
50.5344
50.7308
50.9666
50.3456
50.1974
50.0135
50.1268
54.5434
54.4074
40.0512
40.9328
41.4631
40.607
41.9811
38.0949
38.8275
38.361
39.5549
42.3958
43.1118
45.8805
47.6748
46.123
46.4413
47.0444
47.5083
45.3904
45.7474
45.1481
44.0133
43.7225
45.0272
44.5959
47.8494
47.9916
48.0571
48.1813
48.365
48.4906
48.7209
49.1459
49.3366
48.938
49.5724
49.4195
49.6237
49.7264
49.8167
53.3601
53.4874
53.1915
53.2578
53.4595
53.4042
53.4496
53.4611
53.2963
54.2749
54.4454
54.7482
54.2877
53.8644
54.1809
53.5994
54.5304
54.6753
55.0972
55.0383
54.979
53.1535
52.9967
51.8974
52.7145
51.1884
50.5887
50.7781
50.8836
50.3802
50.2089
49.9887
50.1228
54.687
54.5425
39.9749
40.9108
41.6232
40.4168
42.2055
37.8756
38.151
39.0381
38.4534
39.4494
42.5102
43.1364
46.0348
47.647
47.7891
46.2481
46.5862
46.8241
47.24
47.541
45.4569
45.8159
45.3152
44.1235
43.4803
45.2222
44.8662
44.4228
47.9339
48.0976
48.1821
48.3555
48.5367
48.7873
49.0226
49.2296
49.5792
49.4178
49.6932
49.808
53.4571
53.3927
53.4162
53.6201
53.5649
53.6767
53.7313
53.5205
54.59
54.8748
54.5104
53.9528
54.2754
53.5687
54.8357
55.184
55.2554
55.1176
55.0501
53.4181
53.0718
52.1991
52.7448
51.2193
50.523
50.7326
50.9962
50.3016
49.8713
50.0878
50.2494
54.8286
54.6815
40.1402
39.6628
41.1109
40.5727
41.8918
41.592
42.1521
37.9149
38.9423
38.1923
42.8331
46.1522
47.7609
47.8235
46.4781
46.8705
47.1854
47.435
47.6999
45.5802
45.7123
45.9956
45.3484
43.9241
43.5643
45.2885
44.932
44.5682
47.913
48.0772
48.2604
48.4469
48.6229
48.7364
48.9561
49.2273
49.6648
49.505
49.3321
49.7262
53.6262
53.6288
53.6695
53.7617
53.8077
53.8313
53.9694
54.7774
55.0497
54.6727
53.8632
54.1619
54.4635
54.8246
54.9827
55.4204
55.2066
55.4897
55.3588
55.2461
53.7515
53.4826
52.1014
53.0889
51.5305
50.5841
50.8473
51.0073
50.3467
49.8256
50.2417
50.0573
50.3155
54.981
39.9437
39.6438
40.9638
41.4354
40.387
41.8571
42.3652
37.7977
39.353
38.4166
37.8858
38.0953
42.8926
46.1555
47.7847
46.5732
46.2984
46.7383
47.0296
47.295
47.5111
47.7363
45.6171
45.7367
45.9966
45.5259
44.1362
43.278
45.4646
45.1466
44.8102
44.4729
47.9471
48.1042
48.0131
48.2579
48.4774
48.5893
48.8191
49.0179
49.1387
49.6832
49.5118
49.3452
54.0028
53.9183
53.9383
54.0616
54.0796
54.2581
54.9315
55.0853
54.9058
54.6433
53.9951
54.2903
54.4716
54.9797
55.1252
55.522
55.5727
55.3592
55.6379
55.4147
55.2797
53.7973
54.0981
53.4646
52.5507
52.9611
51.4127
50.7236
50.4848
50.8472
50.9561
51.1651
49.8575
50.3363
50.152
49.9537
50.5094
55.1441
40.0234
41.085
40.5805
41.5875
42.005
42.2514
42.6498
39.5978
38.0729
38.2332
37.7456
37.8098
47.8832
46.501
46.2636
46.8023
47.0459
47.4328
47.2038
47.6518
47.843
45.8559
46.1247
45.5773
44.0686
43.2546
45.5311
45.1544
44.9547
44.6724
48.1685
48.04
48.3429
48.4362
48.6441
48.7608
48.9498
49.1845
49.6033
49.773
49.4361
49.2828
54.3371
54.2769
54.1066
54.255
54.2347
54.3289
54.5814
54.3963
55.261
55.0728
54.8665
54.1947
54.3138
54.628
55.1326
55.7845
55.8195
55.5566
55.8837
55.6506
55.455
54.1624
54.4801
53.7008
52.7141
53.3353
51.7903
50.7283
50.577
50.9472
51.0476
51.1435
50.2705
50.494
50.1331
49.9601
50.5921
55.3006
41.2985
40.8869
40.5535
41.4984
41.8174
41.9607
42.4226
42.6783
39.4648
38.5113
47.9076
46.3669
46.5783
46.7167
46.9504
47.5297
47.2093
47.666
47.8679
45.8438
46.1282
45.7198
43.6478
44.4208
42.8841
45.6719
45.4589
45.2922
44.9039
44.667
48.1683
47.9977
48.3528
48.4915
48.5887
48.8284
49.0134
49.1268
49.6168
49.7898
49.4409
49.3483
54.7606
54.6497
54.2685
54.5917
54.48
54.7181
55.3601
55.0603
55.2803
54.8484
54.5528
55.2934
55.9304
55.9147
55.9853
55.7105
56.0792
55.6526
55.8639
55.4619
54.0376
54.4723
54.7902
52.5003
53.2946
51.6812
50.833
50.9367
51.0322
51.0643
51.2293
50.3189
50.5591
50.2248
50.0513
49.8792
50.7394
55.4591
41.3369
41.0048
40.2837
41.6758
41.9802
42.126
42.3404
38.9268
39.8237
46.3356
46.5268
46.7771
47.0386
47.4934
47.3334
47.7707
47.9468
47.8502
45.9362
46.0442
46.2316
45.7445
43.6908
44.4646
42.6484
45.731
45.5566
45.243
45.0536
44.9319
48.1287
48.2277
48.0145
48.4462
48.3065
48.6228
48.7894
48.9636
49.2016
49.712
49.5298
49.3226
55.0898
55.0458
54.5117
54.8852
54.698
54.7896
55.0474
55.6058
55.2833
55.4115
55.0708
54.675
56.2304
56.1686
56.2511
55.9875
56.3657
55.881
56.1149
55.6381
54.1372
54.7128
55.0497
52.9377
53.7187
51.4178
52.1934
50.8351
50.9981
51.0832
51.1442
51.2028
50.4494
50.6851
50.1881
50.0701
49.8957
50.7672
55.6284
41.2336
41.5617
40.8717
40.4942
41.9307
38.8975
39.4183
46.4152
46.593
46.7058
46.8983
47.0137
47.6123
47.2885
47.7522
47.9307
45.9124
46.071
46.2269
45.8363
43.3696
44.1694
44.7705
42.6131
45.6864
45.8291
45.5296
45.3874
44.9819
48.1865
48.0815
48.4849
48.3738
48.5645
48.7015
48.8617
48.9971
49.1739
49.7362
49.5575
49.3934
55.4218
55.4041
55.3048
55.0894
55.1177
55.4215
55.773
55.3963
55.6487
55.3139
55.1025
54.9395
56.3861
56.3344
56.2927
56.4408
56.17
56.5788
55.8612
56.1303
54.4729
54.9828
55.3457
53.5833
52.7651
51.4315
52.3188
50.941
51.0005
51.0633
51.1516
51.1756
51.2949
50.4743
50.7514
50.2514
49.9956
49.8296
50.856
55.7972
41.299
41.607
41.0314
40.3199
42.1779
39.4427
46.3838
46.5447
46.7651
46.9524
47.1372
47.5638
47.3997
47.841
47.9869
45.9975
46.1485
46.2982
43.4929
42.9202
44.2414
44.8296
45.7216
45.9029
45.6343
45.36
45.1847
48.1811
48.0975
48.4603
48.3724
48.6006
48.681
48.8419
48.9193
49.0765
49.2576
49.6675
49.4972
49.356
55.72
55.7452
55.4065
55.6082
55.1677
55.5116
55.8539
56.0612
55.7177
55.8483
55.5366
55.3763
56.696
56.5951
56.5438
56.7288
56.4762
56.874
56.0289
56.4031
54.4159
55.1488
55.4399
53.92
53.2445
51.676
53.0217
52.1118
50.9369
51.0566
51.0922
51.2045
51.2683
50.587
50.3798
50.7076
50.8539
50.1934
49.9892
49.8756
55.9777
41.449
41.2252
41.8265
40.9288
39.8678
40.6118
42.1157
46.4457
46.592
46.7484
46.8935
47.0873
47.6359
47.3497
47.9507
47.8201
48.0739
45.9954
46.1785
46.2683
43.7635
43.1889
42.8566
44.0397
44.4906
44.6912
45.0362
45.8053
45.8901
45.6501
45.4794
45.1885
48.2161
48.5407
48.2986
48.4723
48.749
48.9182
49.0793
49.1889
49.7098
49.5413
49.45
55.9459
56.0433
55.8064
56.0525
55.4399
55.881
56.1301
56.2546
55.8951
56.1622
55.5647
55.7867
56.9098
56.8452
56.7779
56.9488
56.6416
57.0783
56.2547
56.4317
56.7462
54.6406
55.0066
55.6628
53.78
51.6542
53.3213
52.5259
50.9868
51.0788
51.1382
51.189
51.2889
51.3309
50.5507
50.4355
50.7733
50.9293
50.0685
50.2716
49.824
56.1741
41.3716
41.9511
41.1373
39.7375
40.4697
42.3282
46.4131
46.5448
46.6811
46.8327
46.9187
47.1879
47.7427
47.5726
47.4474
47.9875
47.9072
48.1459
46.0555
46.1371
46.3215
43.6478
43.2979
42.6211
44.2478
44.4575
44.7693
45.0438
45.8042
45.9682
45.7362
45.5892
45.4433
45.3197
48.5538
48.319
48.4897
48.7445
48.8367
48.9987
49.2167
49.6435
49.4595
56.2296
55.9148
56.2855
55.9958
56.1493
56.2695
56.222
55.8024
56.5125
56.5241
56.2173
56.433
55.9182
56.0319
57.2371
57.0713
57.0558
57.2476
56.9188
57.3391
57.088
56.3432
56.7103
57.0147
54.2596
55.1569
55.5248
51.9491
51.4768
53.9353
53.0584
52.5837
51.0588
51.1303
51.0892
51.2587
51.3506
50.6057
50.3864
50.7078
50.8767
50.9456
50.0408
50.2235
49.8685
41.3852
42.231
41.8906
41.1005
40.0405
40.7586
46.4627
46.5858
46.7064
46.8403
46.9915
47.1744
47.7476
47.6507
47.4062
48.0768
47.8505
48.1543
46.0404
46.1656
46.2996
43.8831
43.076
42.7337
44.1998
44.6201
44.908
45.1659
45.873
45.9521
45.7317
45.6529
45.5335
45.2949
48.6542
48.2442
48.41
48.5842
48.8507
48.9584
49.1069
49.3486
49.6943
49.6026
56.4027
56.1696
56.5786
56.4252
56.5381
56.7375
56.6306
56.1046
56.7546
56.7499
56.3007
56.4642
56.7451
57.4165
57.3816
57.3271
57.3173
57.439
56.9923
57.4696
57.3388
56.5724
56.7569
56.9544
57.3243
54.3315
54.8506
55.6902
51.9355
52.3397
51.5377
54.1242
53.3966
53.1505
51.0947
51.1425
51.2701
51.3346
51.4566
50.5597
50.4543
50.7274
50.9062
51.0404
49.9599
50.1194
50.2913
49.801
41.6157
42.4791
42.202
41.3376
40.0409
40.7345
46.4277
46.6602
46.5567
46.7801
46.9117
47.0887
46.9764
47.2916
47.6042
47.4844
48.1238
47.8534
46.1031
46.2284
46.3556
43.7141
43.246
44.4232
44.6236
44.9377
45.1007
45.8581
46.0109
45.7863
45.6311
45.5046
45.3866
48.6681
48.2386
48.4164
48.594
48.7722
48.9893
49.115
49.3616
49.6302
56.7081
56.0989
56.8338
56.6927
56.6178
56.8446
57.065
57.0482
56.5906
57.1435
56.6835
56.8366
57.0593
57.7288
57.7034
57.4825
57.4464
57.7142
57.3202
57.7018
57.4967
57.0314
57.1553
57.5266
54.9381
55.3966
52.3176
51.7388
52.6227
54.5824
53.8492
53.5176
51.1568
51.2031
51.3735
51.4124
51.4926
50.6346
50.4079
50.8238
50.9966
51.0627
49.9757
50.0712
50.2277
49.8785
41.6068
42.5126
42.1973
41.3056
39.6902
40.3993
41.0498
46.4799
46.69
46.5966
46.7995
46.9165
47.1156
47.0461
47.2772
47.6304
47.4514
48.0731
47.7265
47.9447
46.1154
46.2371
46.3133
43.9826
42.9422
44.5071
44.8069
45.1694
45.9187
45.9924
46.0786
45.7698
45.6933
45.5486
45.3984
48.3172
48.5058
48.6915
48.7865
48.8942
49.234
49.0084
49.5001
49.7732
56.8986
56.3212
57.1971
57.0131
56.8274
56.9716
57.2055
57.5141
57.4649
56.8755
57.4615
57.3215
56.9722
57.118
57.3876
57.8837
57.9612
57.8713
57.7773
57.8204
57.8708
57.7604
57.1852
57.4175
57.8798
55.4391
52.4356
51.7467
53.2249
54.6117
54.1692
54.0808
51.1969
51.2098
51.4447
51.4388
51.5956
50.6065
50.4836
50.826
51.0481
51.1333
50.1104
50.2863
49.8872
41.8688
42.5646
41.5275
39.6692
40.4968
41.1502
46.4855
46.7563
46.6562
46.5616
46.8647
46.9856
47.1907
47.0507
47.3578
47.5306
48.1741
47.7356
47.87
46.1871
46.3222
44.3807
43.8594
43.0008
44.7702
45.322
45.0941
45.8885
46.0487
46.1277
45.8127
45.6981
45.6107
45.4918
48.3046
48.5053
48.6984
48.9033
49.2211
49.0093
49.5289
49.7925
57.3403
56.723
56.1373
57.493
57.3106
57.2538
57.2548
57.5471
57.8916
57.8641
57.2773
57.7672
57.696
57.3782
57.5168
57.708
58.3033
58.3611
58.2867
58.0069
58.0639
58.2831
58.1249
57.4868
57.6051
58.1427
54.9858
55.7697
52.1875
52.9246
51.9118
53.5744
54.5188
51.2513
51.2291
51.5652
51.6133
51.4193
50.7003
50.4282
50.9261
51.1305
51.0292
51.2056
50.0217
50.1973
41.8139
42.4999
41.4715
39.4164
39.9232
40.9247
40.2658
46.4532
46.7838
46.6892
46.5717
46.8754
46.9875
47.1902
47.1211
47.3449
47.5074
48.1498
47.6491
47.9005
46.1908
46.2501
46.3854
44.5594
44.1829
43.4288
44.914
45.3483
45.2223
45.9289
46.118
46.0497
45.7767
45.6675
45.616
45.5491
48.4055
48.6015
48.8015
49.3114
49.1015
48.9056
49.6763
49.4365
49.9415
57.5963
56.9099
56.3357
57.9627
57.6293
57.5785
57.6154
57.9464
58.3015
58.2611
57.5574
57.5274
58.1641
58.0217
57.6404
57.6067
57.7761
58.1413
58.5305
58.4933
58.595
58.5038
58.4221
58.499
58.499
58.3811
57.678
57.9593
58.5861
54.9701
55.7225
52.3431
53.0616
53.3816
51.8599
54.2677
54.7089
51.3275
51.3308
51.6712
51.7191
51.5339
50.6617
50.5083
50.9512
51.2137
51.1159
51.2721
50.054
50.2607
42.0672
43.0117
41.8142
39.4164
39.7798
41.0685
40.4069
46.5103
46.8368
46.7509
46.6748
46.6242
46.9305
47.0564
47.2645
47.125
47.4155
47.5534
48.2494
48.027
47.6831
47.8004
46.241
46.3734
44.4729
44.823
43.9924
43.4999
45.4421
45.2121
46.002
45.9104
46.1725
46.1107
45.7736
45.7105
45.6762
45.5363
48.4086
48.5913
48.8028
49.2284
49.1061
48.9115
49.6976
49.4956
49.9504
57.3396
58.0805
56.665
56.0783
58.2889
57.9821
57.9838
57.9651
58.3203
58.7029
58.6937
57.7996
58.3838
58.006
58.0142
58.2445
58.5438
58.9302
58.8888
58.9975
58.8917
58.6662
58.7554
59.0598
59.0792
58.0586
58.2379
58.8578
55.3681
52.0971
52.7277
53.6015
53.9297
54.678
54.4269
55.2773
51.4255
51.9231
51.6569
51.6097
50.758
50.4318
50.8936
51.0824
51.2209
51.3933
50.1862
42.8063
41.9951
39.2588
39.5408
39.9485
40.7984
41.6327
40.257
46.505
46.8579
46.7717
46.7286
46.6342
46.9157
47.0647
47.2695
47.1998
47.4134
47.4923
48.2055
48.3412
48.0764
47.6048
47.8499
46.3011
46.4367
44.6932
44.8923
44.332
45.4674
45.3182
45.0621
46.0151
45.9666
45.8631
46.1653
46.1166
45.8037
45.7126
45.5968
48.497
48.6901
49.2601
49.0217
48.8087
49.6076
49.8212
49.4994
50.0528
57.4953
58.3379
56.6836
56.251
58.7871
58.3416
58.3765
58.3399
58.734
59.0653
59.1646
58.1473
58.7876
58.155
58.3972
58.2926
58.5708
59.1393
59.1
59.1603
59.0695
59.2389
59.222
59.081
59.1771
59.3846
59.424
58.3694
58.6961
59.2943
52.1258
53.0067
53.8083
54.0213
55.282
55.0317
55.5564
51.5851
52.0379
51.7467
50.746
50.4932
50.9737
51.1595
51.3193
51.483
50.2752
43.1529
39.1907
39.3888
39.9455
41.05
41.9244
40.4658
46.5775
46.8256
46.7056
46.9473
47.1506
47.0123
47.3475
47.2178
47.5091
48.312
48.4322
47.9979
47.6421
47.7691
46.2917
46.4292
44.692
44.3128
45.5593
45.4228
45.3074
45.077
46.069
45.9726
45.8667
46.2241
46.1727
45.7752
45.6769
48.6879
49.1549
49.413
49.0363
48.8257
49.613
49.8387
49.9792
58.0124
57.0523
58.8521
56.0484
59.0919
58.9923
58.7062
58.4519
58.7404
58.7331
59.0728
59.5057
59.6199
59.1947
58.6081
58.826
58.7371
59.2461
59.5098
59.4909
59.5539
59.4639
59.641
59.5997
59.3347
59.4444
60.0314
60.0587
58.8358
58.9905
59.5805
52.4191
53.5429
52.826
54.3739
54.6201
55.5667
55.1369
55.511
51.7956
51.9214
52.3183
50.8936
50.6358
50.4129
51.1117
51.2946
51.4368
51.6357
50.1998
43.8582
42.6543
38.9725
39.4281
39.7348
40.3202
41.6143
40.8765
46.5745
46.8621
46.7349
46.9254
47.1677
47.0292
47.3606
47.2979
47.4433
48.4446
48.3295
48.0737
47.5403
47.8297
46.3562
46.494
44.9139
44.6277
45.597
45.4703
45.4056
45.2091
46.0614
46.014
45.9356
45.8952
45.8142
46.2265
46.2016
45.7193
48.5747
49.1355
49.4654
48.9432
48.7196
49.7231
50.0414
58.2112
56.9373
59.0993
56.3463
59.6204
59.4895
59.0218
58.9031
59.1342
59.0509
59.4356
59.7293
60.1034
59.624
58.9431
59.3493
59.0753
59.5844
60.1398
59.715
59.6748
59.7924
59.8953
60.1163
59.747
59.8714
60.3628
60.3843
60.4031
59.1529
59.4386
60.0156
54.0172
53.2816
54.7792
54.5404
56.1348
55.7828
56.1091
51.7913
52.0507
52.0765
52.4769
50.9734
50.6255
50.4897
51.2191
51.4092
51.5618
51.6836
50.2884
43.8908
42.8261
38.8234
39.2259
39.9043
40.6282
41.984
41.4517
46.6325