/*--------------------------------*- C++ -*----------------------------------*\
| =========                 |                                                 |
| \\      /  F ield         | OpenFOAM: The Open Source CFD Toolbox           |
|  \\    /   O peration     | Version:  2406                                  |
|   \\  /    A nd           | Website:  www.openfoam.com                      |
|    \\/     M anipulation  |                                                 |
\*---------------------------------------------------------------------------*/
FoamFile
{
    version     2.0;
    format      ascii;
    arch        "LSB;label=32;scalar=64";
    class       surfaceScalarField;
    location    "52";
    object      phi;
}
// * * * * * * * * * * * * * * * * * * * * * * * * * * * * * * * * * * * * * //

dimensions      [0 3 -1 0 0 0 0];

oriented        oriented;

internalField   nonuniform List<scalar> 
60610
(
-0.000213789
0.000471969
-0.000641101
-0.000178791
-0.000346955
-0.000262773
-0.000424844
-0.000326855
-0.000373015
0.000132803
-0.00054584
0.000163485
7.01289e-06
-0.000319276
-0.000349287
-0.000378154
-0.000402237
-0.000300547
-0.000247717
-8.29139e-05
-0.000482906
0.000139982
-0.000469019
9.90286e-05
-0.000523368
-0.000531678
-0.000295868
-0.000487205
-0.000338902
-0.000159487
-0.000268481
-0.000225288
0.000327036
-0.000586263
-0.000123711
-0.000320149
-0.00040642
0.000365046
-0.000546817
-0.000179516
0.000504997
-0.000581046
8.41906e-06
-0.000314717
-0.000379683
-0.000139854
-0.000366753
0.000356115
-0.000501685
-0.000385138
-0.000190273
-0.000297388
-0.00019354
-0.000163843
0.000365176
-0.00046977
-0.000521422
-0.000104403
0.000180437
-0.000536721
0.000272764
-0.000439831
-0.000440569
-6.8121e-05
-0.000374289
-0.000215421
-0.00027991
0.000384184
-0.000459391
-0.000662761
-0.000240692
-3.23122e-05
-0.000415504
0.000399802
-0.000439215
-0.000117159
-0.000235745
-0.00031258
2.66762e-05
-0.000287703
-2.30332e-05
-0.000364887
-0.000255377
-0.000579988
-0.000581242
-0.000363816
-0.000124791
-0.000287866
-0.00034185
-6.18344e-05
-0.000234331
-0.000332158
0.000406351
-0.000396037
0.0004405
-0.000644533
-0.000136087
-0.000344123
2.2518e-05
-0.000282472
-0.000101221
-0.000220547
-0.000316507
-3.57607e-05
-0.000274821
-0.000367612
-4.86684e-06
-0.000281669
-0.000366471
-0.000236832
-0.000464946
-0.000356742
0.000276424
-0.000228532
-5.96129e-05
-0.000204029
-0.000262039
-8.90805e-05
-0.000208685
-0.000342414
-6.89264e-05
0.000277059
-0.000264792
-0.000338916
9.17916e-05
0.000195701
-0.000393268
-0.000161188
-0.00033677
-1.70564e-05
-0.000189911
-1.73146e-05
-0.000173121
-6.35159e-05
-0.000181865
-0.000255383
-0.000193946
-0.000128537
0.000142144
-0.000199073
-0.000109689
-0.0001085
-0.000128968
-0.000152562
-0.000205958
-0.000289811
-0.000116195
-0.000205589
0.00018246
-0.000178642
-0.000191354
-2.47437e-05
-0.00013655
-0.000192945
-6.29094e-05
-0.000176286
-0.000241053
-0.000230734
-1.96897e-06
0.000106099
-0.000200154
6.35919e-05
-0.000151686
-0.000141679
3.06769e-05
-0.00016618
-1.33639e-05
-0.000158342
-0.000193894
2.64582e-05
-0.000182786
-3.73565e-05
-0.000139261
-0.000162196
-3.02147e-05
-0.000149363
-0.000192873
-4.74016e-05
-0.000176343
-2.91406e-05
-0.000189592
-0.000185642
-6.36711e-05
-0.000145339
1.2536e-05
-5.54072e-05
-4.64431e-05
-9.84811e-05
7.683e-05
-7.34704e-05
-0.000181705
-0.000212284
0.000130473
-8.886e-05
-6.2126e-05
-9.51329e-05
-0.000177055
-1.17564e-05
-0.000138573
-0.000150149
-4.20767e-05
-0.000138936
-0.000221251
-0.000204612
-3.75352e-05
-0.000102024
5.28319e-05
-5.10686e-05
-7.32503e-05
-6.10457e-05
9.55837e-06
2.12063e-05
-0.000101994
-8.22042e-05
2.1106e-05
-8.87739e-05
-7.04372e-05
-0.000199095
7.0784e-05
-0.00014035
6.41265e-05
-0.00013855
-1.49104e-06
-0.000151762
-0.000124261
-3.58345e-05
-0.00010112
-0.000161142
6.26653e-06
-0.000212515
-6.26217e-05
-0.000125426
-0.000109779
3.26077e-06
-4.77813e-05
5.05771e-06
-9.1333e-05
3.9669e-05
-6.01673e-05
-4.54383e-05
-3.87583e-05
-4.52171e-05
-1.93256e-05
-9.19555e-05
-0.000180546
-2.11631e-05
-5.78227e-05
7.29921e-06
-0.000127251
2.26912e-05
-0.000151902
-0.00020796
-0.000206497
-6.9795e-05
-0.000130961
-0.00018037
-4.39568e-05
-6.99677e-05
0.000149216
-7.87141e-05
3.70483e-05
-6.75463e-05
3.68475e-05
-6.58111e-05
-6.28876e-05
5.48945e-05
-6.10774e-05
-1.56124e-05
-0.000168174
-6.45804e-05
-6.08531e-05
1.16888e-05
7.70691e-05
-5.81008e-05
-8.58974e-05
-0.000102482
-2.76006e-05
-6.63391e-05
-0.000122063
-1.07638e-05
-0.000173174
9.9212e-06
-0.000131106
-1.82565e-05
-0.000148691
0.000149488
-7.8727e-05
2.43014e-05
-8.90279e-05
3.74186e-05
-1.23701e-05
-1.42889e-05
-5.55746e-05
7.12893e-06
-1.09229e-05
-5.64557e-05
-0.00014706
9.23768e-05
-0.000132842
2.25281e-05
7.43307e-05
-5.5353e-05
7.75046e-05
-0.000122465
-0.000124346
5.51125e-05
-0.00014838
-0.000131091
-0.000116319
-2.25782e-05
-0.000127238
-0.000139115
-0.000151179
-2.30175e-06
-5.27473e-05
0.000189666
-0.000119046
6.85448e-05
-6.53291e-05
6.00982e-05
-5.73448e-05
6.20178e-05
-3.90496e-05
4.67575e-05
-4.9369e-05
5.60824e-05
-0.000135777
-3.81186e-05
-2.7458e-05
5.98698e-05
2.41912e-05
-4.83511e-05
-2.99807e-05
-0.000103937
-0.000201583
0.000100331
-0.000134188
6.37125e-05
-0.000171486
-7.77518e-07
-0.000126916
5.89416e-06
-0.000143082
-0.000135863
0.000170302
3.39089e-06
0.000185636
3.73903e-05
-8.62882e-05
-9.6419e-06
3.10542e-05
1.29816e-05
2.092e-05
-9.87106e-05
7.71781e-05
-1.76096e-05
-0.000125766
-0.000115919
9.53346e-05
3.77168e-05
7.18114e-05
-4.00392e-05
-0.000214408
0.000193556
3.14397e-05
-0.000116143
-0.000138059
-8.07155e-05
-5.62492e-05
-0.000100577
-5.1961e-05
-0.000110718
-6.47922e-05
-6.18417e-05
7.50847e-05
-0.000101392
-7.06615e-05
0.000194318
-0.000131294
-0.0001338
0.000149884
-2.71722e-05
-5.54518e-05
8.45993e-05
5.9563e-05
-2.88496e-05
8.69786e-05
5.24017e-06
-0.000197843
0.000212116
-0.000114765
0.000264379
-0.000140838
-0.00010883
7.93267e-05
9.76963e-05
-0.000156701
8.86065e-05
-0.000200871
0.000191751
-0.000242471
-0.000144473
9.39421e-05
-0.000131499
-8.90439e-05
-1.1456e-05
-0.000137729
0.000194175
-0.000100322
0.000117202
0.000116116
-0.000226056
0.000124025
-7.3212e-05
-4.41129e-05
-4.42272e-05
-8.56309e-05
-6.63471e-05
1.98584e-05
1.171e-05
5.03862e-07
6.76566e-05
-0.000121791
0.000143129
0.000100464
0.000112462
-0.000114881
-0.000203424
8.22592e-05
-0.000112865
-2.00275e-06
-4.43319e-05
0.000199199
-9.36963e-05
-9.97248e-05
-8.42145e-05
-0.00018269
0.000400503
-2.67077e-05
-6.51833e-07
-0.000128077
-9.31172e-05
-2.79627e-05
-0.000111332
-1.08272e-05
0.000273066
-0.000126983
0.00031233
-0.000166093
0.000394688
-0.000234987
-0.000118682
9.14763e-05
-0.000146908
0.000119286
-5.3253e-05
8.02125e-05
-9.4174e-05
-6.65814e-05
7.35439e-05
1.04738e-05
0.000107259
5.147e-05
0.000379395
-0.00025268
-7.86022e-05
0.000207662
-0.000103537
0.000341713
-0.000237668
-0.000290858
0.000314499
-0.000128936
-0.000287992
0.00021013
0.000134832
-0.000202517
0.000202917
-0.000368243
0.000135459
-0.000195033
0.00017874
-8.36185e-05
-1.48573e-05
-9.44115e-05
0.000118475
-0.000135306
-0.000108802
-0.000102344
0.0001954
0.000218488
0.000266929
-0.000287439
8.10519e-05
0.00019037
-7.77639e-05
5.83017e-05
-0.000150975
2.74239e-05
-2.49136e-06
0.000130355
-0.000142223
0.000209489
0.00032392
7.87984e-05
0.000110849
0.000263027
7.93079e-05
9.65088e-05
3.00955e-06
-0.000130964
2.68239e-05
-0.000182772
-0.000309578
0.000529928
-0.000176825
-0.000313976
0.000469036
3.61798e-05
-0.000112107
5.96655e-05
-0.00013922
-9.0202e-05
2.81645e-06
-0.000100475
-9.12505e-05
0.000104243
0.000108314
0.000517536
-0.000256526
0.000585008
-0.000272436
0.000575787
-0.000459982
0.000131908
-0.00019221
0.000176765
-0.000107876
3.69206e-05
0.000146366
-0.000106692
0.00015981
4.10303e-05
0.000165605
5.99153e-05
0.000469262
-0.000371881
0.000488175
-0.000357945
0.000243203
3.56609e-05
0.000338021
-0.00033858
0.000454675
0.00023542
-0.000345401
0.000348372
-0.000306903
-0.000212312
4.83463e-05
0.000296223
-0.000589168
0.000234114
0.000183791
0.000148749
-4.17078e-05
-6.39663e-05
-5.98408e-05
5.19785e-05
-0.000129023
-7.99128e-05
-4.58261e-05
-4.61554e-05
-0.000366734
0.000185959
0.000370736
-0.000867358
0.000648557
-0.00024473
-0.000424068
-6.1767e-06
0.000229731
-8.24369e-05
-1.09145e-05
0.000133863
-0.000368106
0.000225736
-0.000221224
0.000297458
0.000376416
0.000110066
0.000134571
0.00011438
0.000430207
0.000135343
0.000501212
-0.000246655
-0.000233903
-9.72958e-05
0.000212835
-0.0001427
-0.000171929
-0.000495071
0.000808466
-0.000389113
-0.00044418
0.000695102
-0.000408868
0.000573886
-0.000158565
-9.86841e-05
0.000113013
-0.000157075
-7.07558e-05
-0.000108288
-0.000313985
0.000796495
-0.000380306
0.00115952
-0.000456334
-0.00117726
0.000980023
0.000561323
-0.000543062
0.000181742
-0.000249538
0.000171276
-0.000167136
-0.000217704
0.00024191
-9.13613e-07
0.000250908
6.30541e-05
-0.000539643
0.000668115
0.000640484
-0.000489595
-0.000413568
0.000543438
2.95861e-05
0.00041389
-0.000251146
0.000403323
0.000301935
-0.000532287
0.000244389
-0.000329594
0.000665763
-0.000435891
7.03262e-05
-0.000200506
0.00013518
-0.000294124
0.000615025
-0.00109022
0.000381353
0.000293615
0.000302403
0.000174847
-2.69299e-05
-9.5642e-06
-8.02896e-05
-5.24669e-05
-9.03198e-05
-0.000107165
0.000532763
0.000834796
-0.0020121
0.00163178
-0.000585368
-0.000958401
-0.000660094
0.000134571
0.000292083
-9.80603e-05
-6.61416e-05
8.7049e-05
8.92812e-05
0.000262675
-0.000381418
0.000463025
0.000119232
0.000419832
0.000265246
6.8361e-05
0.00046062
0.000175509
3.90342e-05
0.00078087
-0.000462643
-0.000272744
-0.000181157
0.0003618
-0.000211152
-0.000142213
-4.75076e-05
0.00139045
-0.000756326
-0.000776851
-0.000680694
0.00107929
-0.000562469
0.00088114
-0.000485364
0.000673763
-0.000154474
-0.000121053
-0.000136558
5.8345e-05
-9.52207e-05
-0.000396775
0.00150622
-0.000610976
0.00202088
-0.000313867
-0.000754551
0.000191401
0.00149476
-0.00238157
-0.000495957
-0.000145588
-0.000605342
-0.000374925
0.000290146
-0.000304285
0.000252116
-0.000205778
-0.000390275
7.12614e-05
0.000392901
8.90342e-05
-0.000709415
0.000847466
0.000731925
-0.000450384
-0.000418046
0.000496925
0.000306814
0.000164586
0.000493035
-0.000346151
0.000397236
0.000454597
-0.000901554
0.000385146
-0.000643107
0.000310025
-0.000476231
0.00107584
-0.000698168
-0.000215601
1.86424e-05
-0.000252039
0.000727241
-0.00170781
0.000968636
0.0003168
0.000534205
0.000410679
0.000265788
-0.000236822
9.76556e-05
-2.59407e-05
-8.44726e-05
-6.78735e-05
-5.96235e-05
-0.000163828
-0.000110029
0.00116779
0.00147477
-0.00367854
0.00347709
0.0011733
-0.000956584
0.00305398
-0.00149367
-0.00116442
0.000569125
-0.000699797
-2.06197e-05
-0.000105671
-8.68084e-05
0.000483408
0.000596356
-0.000489399
-0.000200288
0.000798154
6.49878e-05
0.000508315
0.000238182
0.000361332
0.000686853
0.000157153
0.000569603
-0.000162237
0.0011476
-0.000677916
-0.00050091
-0.000319086
-0.000314869
-0.000149266
0.00046397
-0.000282428
-0.000138907
0.00189116
-0.00114571
-0.00126108
-0.000433345
0.00194983
-0.000966956
-0.000930481
-0.00107308
0.00162634
-0.000818212
0.00124716
0.000626919
-0.000352844
-0.000141509
0.000136285
-0.000186429
-1.56805e-05
-9.8639e-05
-0.0012099
0.00237409
-0.000829214
-0.00054169
0.00190618
-0.000661675
-0.00113411
0.000200503
0.00230453
-0.00373569
-0.00122477
8.30616e-05
-0.000521008
-0.000160409
-0.00112958
-0.000536419
0.000450411
-0.000590602
-3.28698e-05
0.000637565
-2.40905e-05
9.31536e-05
0.000436405
0.000961511
-0.000882643
-0.000735612
0.000989567
-0.000615888
0.000989436
0.000479048
0.000223463
0.00064842
0.000496371
-0.00134391
0.000681174
0.000516803
-0.00100207
0.000405415
-0.000710676
0.000334354
-0.000473298
0.00138034
-0.000902964
0.000200443
-0.00047045
0.000224538
-0.000347235
0.000837494
0.000820435
0.00159047
-0.0020102
-0.00140707
0.000447919
0.000461002
0.000830686
0.000908673
-3.86673e-05
-9.24545e-05
-0.000101324
-7.45757e-05
0.000308308
-0.000308031
-0.000126401
0.00122634
0.000979304
-0.00271181
0.00221629
0.00253995
-0.00313542
-0.00100319
-0.000363325
-0.00199346
-0.00167951
-0.00187821
0.000781689
-0.000922137
-0.000323162
-0.00012251
0.000622984
-0.000814968
0.000808315
-0.00061028
0.000715485
0.00125141
-0.000800576
0.000357998
0.000386684
0.00026851
0.000829054
0.000176996
0.00107151
-0.00010098
-0.000810032
0.00132773
-0.000634537
-0.000581429
-0.000363765
-0.0002623
0.00043564
-0.000232028
-2.46076e-05
-0.001663
0.00252122
0.00272785
-0.00188857
0.000193123
-0.00153462
0.0025159
-0.00205656
-0.00155073
0.00240667
0.000122715
-0.000183334
0.000209446
-0.00027267
-8.58917e-05
-0.000114919
-0.00211154
-0.00210397
0.00315555
0.00421469
-0.00193654
0.000502275
0.0011643
0.000850251
-0.00182773
0.00387236
-0.00416887
0.000958672
-0.00260155
-0.00100295
-0.000671191
-0.000231095
0.0010431
-0.00134012
-0.000774902
-0.000133339
-8.34412e-05
0.00104223
-0.000214338
-0.000924785
0.00129802
0.00142716
-0.0010227
-0.000978761
0.00126238
-0.00109987
0.00129409
0.00102151
6.90829e-05
0.000938914
-0.00165653
0.000866327
-0.00251867
0.00190225
0.000455485
-0.0010218
0.000358259
-0.000710147
0.000271538
-0.000523487
0.00150934
-0.00106415
-0.000555127
0.000338643
-0.000562763
0.00108473
0.000992877
0.000645987
-0.00185134
-1.1377e-05
0.00164772
0.000788472
0.00179624
-5.92957e-05
-0.000113109
-0.000138807
-0.000122836
0.000333829
-0.000406531
-0.000163122
0.00112907
0.00198908
-0.00270026
0.00328021
0.00402684
-0.00279228
-0.000755546
-0.00371262
-0.000383704
-0.00270643
-0.0016074
-0.000959789
-0.00257452
0.00101465
-0.00122338
-0.000301848
0.000929369
-0.00107359
0.00100764
-0.00136313
0.00117063
0.00051929
0.000334254
0.000796495
0.000178333
0.00118349
0.000128557
0.00127044
-0.000118111
-0.00118122
-0.00162454
0.000851784
-0.000650009
-0.000428308
-0.000170134
-0.000210484
-0.00183159
0.00293401
-0.00211851
0.00313384
0.00425214
-0.00357623
0.0011402
-0.00297257
-0.00231659
0.00232286
-0.00204812
0.002862
-0.000241096
0.000233471
-0.000345354
-0.000161114
-0.000151182
-0.00178999
0.00303952
-0.00101019
0.00140793
0.00396339
-0.000579312
0.000293613
0.000915209
-0.00164976
0.00350933
-0.00382955
-0.00224399
-0.000429732
-0.00316742
-0.00162968
-0.000271721
0.00155206
-0.00182612
-0.000335787
0.00195771
-0.000756531
-0.00110129
0.00163756
-0.00124113
0.00159076
0.00164544
-0.0008281
-0.00110131
0.00129273
-0.00158041
0.00172917
0.00108675
0.000198328
0.000982597
0.000235742
-0.00139631
0.000404729
-0.00200976
-0.00144538
0.000225243
-0.000863827
-0.000668748
0.000251312
-0.000822762
-0.000500113
0.000305104
0.00244366
0.000833619
0.00110837
-0.00402815
0.000483147
-0.00286737
-0.000630859
0.00225634
0.000625572
-7.31284e-05
-0.000156524
-0.000157478
-0.000176846
0.00028016
-0.000429872
-0.000212773
0.00228419
-0.00230163
0.00131116
0.00348612
-0.00201665
-0.00255419
0.00202553
-0.00284841
0.00318568
-7.4654e-05
0.00413565
-0.000568204
-0.00297292
-0.000806939
-0.00335919
-0.00256521
-0.000567937
-0.00215432
0.000553206
0.00171781
-7.41812e-05
-0.00151526
0.00119879
-0.00193966
0.00121177
0.000562042
0.000412399
0.000502391
0.00144637
-0.000271334
0.00115655
0.000593785
0.00136939
-0.000517927
0.00144756
-0.00119651
-0.00115686
0.00316133
-0.00273533
-0.000549731
-0.00566958
0.00426659
-0.000600743
-0.00104267
0.000244481
-0.000209138
-0.000717914
0.00283479
-0.000371276
0.00368845
-0.0024572
0.00358773
-0.00466578
0.00518518
-0.00239085
-0.000461657
-0.00300694
-0.00225025
0.00289189
-0.000302954
0.000223362
-0.000389866
-0.000196273
-0.000200317
3.66026e-06
0.00186671
-0.00151473
0.000983976
-0.00404055
0.00208345
0.00409639
-0.00200363
-0.000790059
-0.00220196
-0.00439586
0.00388838
0.00305489
-0.00381085
-0.00237657
-0.000944944
-0.00198156
-0.00291432
0.00338258
-0.0034012
-0.000717613
0.00229943
-0.00106114
0.00257493
-0.00199424
-0.00154499
0.00197386
0.00176932
-0.0012526
-0.00229768
0.00376286
0.00151543
-0.0014793
0.0020984
0.00086527
-0.0021953
0.00101381
-0.000822032
-0.00031784
-0.00246218
-0.00105279
-0.00166988
-0.00159449
0.00128516
-0.00140667
-0.0011375
0.00046144
-0.000658058
-0.000239431
-0.00486932
0.00453227
0.00125377
0.00135864
-0.00378027
-0.000855198
0.000354734
-0.00421932
0.000611989
-8.87431e-05
-0.000202396
-0.000184818
-0.000194311
0.000232054
-0.000420147
-0.000277079
-0.00340702
0.000371304
0.00291757
-0.00189559
0.00390105
-0.00176429
0.000757245
0.00095609
0.0031919
-0.00392645
0.00122807
-0.00127839
0.00317594
0.000764005
-0.00245279
-0.00131318
-0.00335886
0.00136396
-0.00331403
-0.00152141
-0.00105949
-0.00186822
0.00117192
-0.00240778
0.00137047
0.00104738
0.00179084
0.000739088
0.00202805
-0.00049463
0.000569393
0.000982187
0.00113958
-0.000880802
-0.00130146
-0.000570132
-0.0011857
0.00171802
-0.00415341
-0.00209661
0.000440066
-0.00290664
-0.00107082
-4.7153e-05
-0.000415989
0.000689119
-0.000909241
0.00354081
0.00101936
0.00482108
-0.00341866
0.00479875
-0.00657808
0.00576631
-0.00571868
0.00611447
-0.00333492
0.00396666
-0.000375915
0.000280661
-0.000464821
-0.000131273
-0.00026416
0.00359207
0.00205454
-0.00314405
0.00141537
-0.00196698
0.00323011
-0.00223054
8.9114e-05
-0.000279988
-0.00203788
0.00327414
-0.00447905
-0.00266072
0.00347001
0.00210564
-0.00337853
-0.00210259
-0.00121926
-0.00358593
-0.00171909
0.000679273
-0.00120686
-0.000330485
0.00352533
-0.00245923
0.00391835
-0.00210644
-0.00242205
0.00318082
-0.00230726
0.00182858
-0.0014573
0.00204286
0.00213092
-0.000966044
-0.0011831
-0.000105949
-0.0026524
-0.00235428
-0.00556397
0.0073192
-0.00297579
-0.00116136
-0.00252039
0.00515552
-0.00801215
-0.000366662
0.00138288
-0.00141264
-0.000431114
2.52822e-05
-0.000801447
-9.15112e-05
-0.00528815
0.00634127
0.00142602
0.00148388
-0.00138005
8.97025e-05
0.000863002
0.00375756
0.000225226
-0.000112498
-0.000251229
-0.000234381
-0.000219437
-0.000553751
-0.000364255
0.00285649
-0.000770563
0.00402927
-0.00257192
-0.00293419
0.000999054
0.000333947
0.000654959
0.00324739
-0.00312203
-0.00255502
0.00230466
0.00219027
-0.0041808
0.00411432
-0.000771775
-0.00231481
0.00150125
0.000945737
-0.00206478
-0.00127687
-0.00324927
-0.0013582
0.00174348
-0.00105091
0.000949025
0.00210039
-0.00240736
0.00112066
0.00147801
0.00166692
0.000891428
0.000383921
0.00267906
-0.000614021
0.00173857
0.00305446
-0.00313524
0.000423742
-0.000947756
-0.00302265
-0.00251745
-0.000637034
-0.00416985
-0.00349397
0.000986913
0.000825061
-0.00118036
-0.000575233
-0.000761729
0.00101654
-0.0010933
0.00451861
0.00185137
0.00597019
-0.00354367
0.00504713
-0.0103441
0.00903473
-0.00746411
0.007604
-0.0064644
0.00736779
-0.00296384
0.00320024
-0.000473881
0.000374786
-0.000583185
-0.000168583
-0.000350894
-0.00311396
0.00237182
0.00095534
0.000708337
-0.00102917
0.00331884
-0.00294988
-0.00288497
0.00357478
-0.0040401
0.000957976
-0.00170023
-0.00401355
-0.000118896
-0.0022913
0.00154879
9.40775e-05
-0.00237526
0.00462517
-0.00307285
0.00266435
-0.00169735
0.00128823
-0.0025385
-0.0023134
-0.000900279
-0.00363388
-0.00224299
0.00106244
0.00247697
-0.00150271
9.88447e-05
-0.00276263
0.00390082
0.0041732
-0.00267687
-0.0032196
0.00490312
-0.00265466
0.00356262
-0.00262198
0.00302118
-0.00244748
0.00184725
0.00201232
-0.000257033
-0.00258146
-0.000531671
-0.00305045
0.000789806
-0.00172421
-0.00855039
0.00607023
0.00692559
-0.00751974
-0.00316737
-0.000150441
0.00057602
-0.00114201
-0.000567677
-0.000182297
-0.000939713
-0.000137222
-0.00504072
0.00692174
0.00244956
0.00209922
-0.00335816
0.0016318
0.00118446
0.0023603
-6.56119e-06
-0.000158734
-0.000302607
-0.000328521
-0.000243256
-0.00072478
-0.0004968
-0.0004874
0.00474362
-0.00374075
0.00399036
-0.00324004
0.0023201
0.000666792
0.00312998
-0.00214489
0.000984961
0.00193887
-0.00203973
-0.00304359
0.00078921
0.00291821
-0.00134573
0.00238749
-0.00225378
-0.00106317
0.00296876
-0.000120933
-0.00164206
-0.000874799
-0.00251848
-0.0016703
-0.00116151
0.000525677
0.00232763
-0.00220468
0.001428
0.00126258
0.00224719
0.000956112
0.000585847
-0.00220492
0.00406828
-0.00272685
0.00248726
-0.00177873
-0.00314795
0.00263446
-0.00401777
0.000984098
-0.00174972
3.52952e-05
-0.00175326
-0.00676199
0.0058988
0.000192607
-0.00159717
-0.00490147
0.00114037
-0.00127839
-0.00116442
6.8188e-06
-0.00110725
0.00140533
-0.00152414
0.00400213
0.00294616
0.00647555
0.00511738
-0.0030007
-0.0110506
0.00776189
0.00781568
-0.00613681
-0.00695494
0.00818513
-0.00516995
0.00756339
0.00512998
-0.000618527
0.000465897
-0.000698076
-0.000248684
-0.000482572
0.00430751
0.000306166
-7.85253e-05
-0.00401001
-0.00444926
0.00518018
-0.00345994
0.00134384
-0.00244632
0.002041
-0.0040548
-0.000602596
0.00246101
-0.00164935
0.00113417
-0.000803057
-0.0014267
-0.00184946
0.00055591
-0.00364878
0.00356669
0.00123269
-0.00208952
0.000709334
-0.00320024
0.000389622
-0.00314488
0.00201422
0.0023968
-0.00185493
-0.000788707
0.000212625
-0.00392641
0.00537338
-0.00379136
0.00507224
0.00472904
-0.00246462
-0.00330621
0.00427893
0.00366082
-0.00306166
0.00146904
0.00136173
0.000647388
-0.00149106
-0.000279153
-0.00193564
-0.00119758
-0.00136622
-0.00390084
-0.00144872
0.000513387
-0.00723907
0.00536304
-0.00515195
0.00378135
0.000141653
-0.00120419
4.65528e-05
-0.00118977
-0.000464029
-0.000633614
-3.89251e-05
-0.00146246
-0.00363983
0.00660754
0.00349991
-0.00722454
0.0116268
-0.00378316
0.00090314
0.00555404
0.00305448
0.00394916
0.00616617
-0.00101267
-0.000368589
-0.000237126
-0.000532469
-0.000154886
-0.000704536
-0.000833335
-7.0251e-05
0.00437378
-0.00400834
-0.00327583
0.00322997
0.00124365
-0.00190325
-0.00199987
0.000701674
-0.00127996
-0.0036358
0.0020196
-0.00248664
6.56746e-05
-0.00146979
-0.000599272
0.00512375
-0.00450334
0.00605652
-0.00242622
-0.00136118
-0.00277411
-0.00208057
0.00130777
0.00265102
-0.00241755
0.000818632
0.00160101
0.00178353
0.00372059
0.001233
0.00421193
-0.00272582
-0.00283282
0.00421294
0.00334899
-0.00268206
-0.00220497
-0.0037134
0.00253063
0.00329257
-0.00464324
-0.00059235
-0.00233862
0.000900596
0.00846032
-0.00791086
-0.00780274
0.00801377
-0.0131205
0.00201236
-0.00185323
-0.00228079
0.000834036
3.75569e-05
-0.00066348
0.00204032
-0.00205532
-0.00141108
0.00574404
0.000889226
0.00927623
0.000829362
-0.0102889
0.00657506
-0.00686532
0.00781242
-0.00127087
-0.00617604
0.00927438
0.00663617
-0.00266517
-0.00453014
0.00353016
-0.000757197
0.000632548
-0.00077781
-6.47413e-05
-0.00072603
-8.95299e-05
0.00288276
-0.00291548
0.00610623
-0.00165132
-0.000732982
-0.00410501
0.00327389
-0.0034714
0.00150702
-0.00288394
-0.00219935
0.00094042
0.00273405
-0.000697193
0.00027026
-0.00208989
-0.00204861
0.00163176
0.00182533
-0.00421414
0.00143224
-0.00276736
-0.00431435
0.0015844
0.000588241
-0.00214065
0.000953876
-0.00623329
0.00707226
-0.00616562
0.0077922
-0.00423807
0.00604087
-0.00249265
0.00476218
-0.00351204
0.00139755
0.00205334
0.00155155
-0.00129264
-0.00191729
-0.00178379
-0.00209495
-0.00460876
0.00265821
-0.010538
-0.00462384
-0.00315182
0.000206695
-0.00143146
-0.000721979
0.000729715
-0.00275994
-0.000112471
-0.00128903
0.00755097
0.00476695
0.00854529
-0.00766466
-0.0016859
0.00833617
-0.0017037
0.00168465
0.00712438
0.00664689
0.00756466
-0.00401931
-0.000734138
-1.07133e-05
-0.000853909
8.57474e-05
-0.000710831
-0.000810368
0.00574121
-0.00280095
0.00325125
0.00375569
-0.00535522
-0.00512448
0.00444662
0.00171776
-0.00179319
-0.00276026
-0.00377621
0.000948927
-0.00278995
-0.00188899
0.00120312
0.00308943
-0.00279523
-0.00024683
-0.0018098
-0.000592541
-0.00408985
0.00578495
0.0054862
-0.00361454
-0.00108954
-0.00115039
0.00193149
-0.00133147
-0.000195624
0.00364198
-0.00266584
0.000936875
0.00357779
0.00254708
0.00509801
0.00458426
-0.00316789
0.00563621
-0.00356469
0.00456192
-0.0029886
-0.00319668
0.00204784
-0.00381934
-0.00669683
-0.00995302
0.00537831
-0.00726273
-0.00351032
-0.00700715
-0.00664477
-0.00170624
0.00192719
-0.00247393
0.0010582
-0.000828144
0.00302219
-0.00227064
-0.00162688
-0.00110861
-0.000745013
-0.000532325
0.009118
-0.00153676
0.000762136
-0.0126022
0.00499404
-0.00639783
0.00474766
-0.00718594
0.00553651
-0.00805717
0.00980242
-0.000876971
0.00665459
1.81799e-05
-0.000853435
-0.000734668
-0.00078478
8.79237e-05
-0.00094538
0.00014809
0.000486761
0.00681394
-0.00300399
-0.000858965
-0.00071599
-0.00632902
0.00460424
-0.00373419
0.00100992
-0.000922685
-0.00399072
0.00126454
-0.00157307
0.00200463
-0.0022231
-0.00237465
0.00145554
-0.000469357
-0.00318072
-0.00039507
-0.00423533
0.00228915
-0.00340472
-0.00267244
0.00135316
0.00228021
-0.00245942
0.000987579
0.00191976
0.00969077
-0.00871595
-0.00266956
0.00626638
0.00658205
-0.00401597
0.00860479
-0.00348074
0.00161653
0.00248731
0.00303557
0.000699532
-0.00387974
-0.0046291
-0.00310589
-0.00716522
-0.011326
0.00409518
-0.00233894
-0.00465399
-0.00896713
0.00133123
-0.000534834
-0.00280374
0.000890602
-0.00313856
0.000946166
-0.0025518
-0.00183331
-0.00125778
0.00470016
0.00443802
0.00513886
0.00547831
-0.00136803
-0.00239426
0.00640858
-0.000824619
0.00660805
0.00324415
0.00558109
0.00665407
-0.00110595
0.000264102
-0.000770436
-0.000844051
-0.00094553
-0.00641594
0.00698691
0.00046452
-0.00577978
0.00282136
-0.00657685
-0.00733784
0.00671152
-0.00190131
-0.00142872
0.00351331
-0.0024732
0.00284154
-0.00372954
-0.00194254
0.00622366
-0.00488138
0.00129302
0.000695647
-0.00289334
-5.75958e-05
0.00497303
-0.00346872
-0.00494644
0.00452687
-0.0044671
0.00412038
-0.0028975
0.000143961
-0.00109513
0.00309939
-0.00209611
0.00576117
-0.00381167
0.00847164
0.00125164
-7.9311e-05
0.00582337
0.0022665
-0.01097
0.00752046
0.0057789
-0.00413909
0.00558799
-0.00308514
0.00703171
-0.0039768
0.00155414
-0.0061645
0.00197556
-0.00506489
-0.00937312
0.00224486
-0.00564307
-0.00565658
-0.00524777
-0.0102727
-0.00739044
0.00249652
-0.00115158
0.00197179
-0.000817942
-0.00212731
0.00303467
-0.00217049
-0.00198719
-0.000541761
-0.00133003
-0.000488515
-0.000982255
0.00547012
-0.00101683
-0.0028021
0.00796237
0.00660299
-0.00791424
0.00425846
-0.00476967
0.00398703
0.00733543
-0.00405524
0.00671036
-0.00109118
0.00387202
-0.000890413
0.000133412
-0.00105825
0.000226881
-0.00123774
0.000304209
-0.000267684
-0.00734155
0.00788112
-0.00445026
-0.00495613
-0.00720067
0.00538029
0.00244236
-0.00384719
-0.00324715
0.000793834
0.00257496
-0.00309068
0.00117474
-0.00632297
0.00152237
-0.00237104
-0.00292063
7.58982e-05
-0.00440941
0.00097411
-0.00261086
0.000739629
-0.00516132
-0.000255828
0.00114203
-0.00399788
0.00418702
-0.00400739
0.00201938
0.00369428
0.0019974
0.00782358
-0.00654906
-0.00830143
0.00824723
0.00510334
0.000736418
0.0073876
-0.000752208
0.00146684
0.00396389
0.00343104
-0.00417371
-0.00301844
-0.00202844
0.00609798
-0.00382477
0.00302273
-0.00865978
-0.00843633
0.00321463
-0.00210346
-0.00815519
-0.000969117
-0.00640537
-0.00363093
0.00249676
-0.00381909
-0.00435216
0.00224556
-0.000578967
0.0011913
-0.0033384
0.000912738
-0.00287464
-0.00185331
-0.00145743
0.00697176
-0.00176893
-0.000458623
0.00349863
0.000515629
0.00317364
0.00418771
0.00269405
0.002429
0.00706661
-0.000876021
-0.000911369
-0.00099853
-0.00114129
-0.00674884
0.00654495
0.00120498
-0.00915636
0.00480315
-0.00893491
0.00407042
-0.00368121
-0.0007853
-0.00180638
0.00370863
-0.00289586
0.0001658
-0.00847515
-0.00508878
0.00227477
-0.0113903
0.00276445
-0.00510002
0.00130223
-0.00501135
0.00513426
0.00445045
-0.0034468
-0.00374558
0.00115679
-0.00414288
0.00492227
-0.00397101
0.00306962
-0.00330404
-0.00379713
-0.000265947
0.00421495
-0.00049864
-0.00590127
0.00793353
0.00764315
0.00020183
-0.012231
0.00570927
-0.00395018
0.00840436
-0.00916869
0.00844587
-0.00569014
0.0071775
-0.00170943
-0.00585649
0.00931614
0.000959728
-0.00512242
0.00308925
-0.00510324
-0.00484332
0.00103565
-0.00539
-0.00252923
-0.00611327
-0.00161003
-0.00462604
-0.00910678
-0.0054347
-0.00130634
-0.00313331
0.00369763
-0.00143269
0.00313414
-0.00240092
-0.00197406
-0.000873189
-0.000124768
-0.00171592
-0.00576107
0.0127691
-0.003865
0.00212581
-0.00363715
0.00323573
-0.00206713
0.00260434
0.00620842
-0.00199721
-0.00156325
0.0042747
-0.00104807
0.00349501
0.00132878
-0.000979478
0.000116999
-0.00113221
0.00023359
-0.00129228
0.000305353
-0.00125606
-0.00231843
0.010461
-0.00915173
0.00951103
-0.00462455
0.011777
-0.00758768
-0.0083955
0.00478875
0.00345386
-0.00421931
0.00242868
0.00057598
-0.00757415
-0.000827871
-0.00228238
-0.00693185
-0.007141
-0.00410331
-0.00375277
-0.000518251
0.00142059
-0.000355627
0.00550032
-0.00431107
-0.00560211
0.00150237
0.00164872
0.00118504
-0.00511446
-0.00453947
0.000777119
0.0049535
-0.00518698
-0.0070262
0.00656125
0.00130384
0.000949591
-0.0106887
0.0109202
-0.00495214
-0.0103734
0.00644721
0.00257565
0.00363718
-0.00190334
0.00763729
-0.0020223
-0.0034039
-0.00168289
-0.0028108
-6.81318e-05
-0.00530591
0.00159808
-0.00769168
0.00259062
-0.00418384
0.00290776
-0.00752291
-0.00618476
-0.00432982
-0.00109478
-0.00469308
-0.00447455
0.00137153
0.00368641
-0.00509534
-0.00153994
0.00147322
-0.00384783
0.00133378
-0.00327985
0.00114318
-0.00199637
-0.000560173
0.00310157
-0.000945856
-0.000494433
0.00120736
0.00157384
0.0075614
-0.00409308
0.00211452
0.0019478
0.000196532
-0.000964946
-0.00100156
-0.00104629
-0.000941105
0.00822727
0.000464254
-0.0110034
0.00646973
-0.00215294
0.00073027
-0.00282947
-0.00612386
-0.00497351
0.000774726
-0.00252791
0.00576135
-0.00515982
-0.00533039
-0.00933113
0.000911568
-0.00778091
0.00504832
-0.00906962
-0.00728593
0.00358281
0.00380755
-0.00429365
-0.00286461
-0.00515077
0.00483088
-0.00437326
-0.00514428
0.00670007
-0.00346739
-0.00429746
-0.00228508
0.000605527
0.0040539
-0.00771199
0.00904889
-0.00745282
0.00843612
0.00702834
0.00392178
-0.0146773
0.00976762
-0.0081976
0.00963429
0.0076311
-0.00397572
-0.00684547
0.0049552
-4.23395e-05
-0.00634077
0.00470832
-0.00637336
-0.000203405
0.00353148
-0.00358537
-0.00369216
0.000885311
-0.00855569
-0.000634399
-0.00662081
-0.00726662
-0.00297407
0.00519355
-0.00379203
0.00612948
-0.00241951
0.00012693
0.00461289
-0.00248725
-0.00127425
-0.00197633
-0.000184294