/*--------------------------------*- C++ -*----------------------------------*\
| =========                 |                                                 |
| \\      /  F ield         | OpenFOAM: The Open Source CFD Toolbox           |
|  \\    /   O peration     | Version:  2406                                  |
|   \\  /    A nd           | Website:  www.openfoam.com                      |
|    \\/     M anipulation  |                                                 |
\*---------------------------------------------------------------------------*/
FoamFile
{
    version     2.0;
    format      ascii;
    arch        "LSB;label=32;scalar=64";
    class       volScalarField;
    location    "52";
    object      seepageTerm;
}
// * * * * * * * * * * * * * * * * * * * * * * * * * * * * * * * * * * * * * //

dimensions      [0 1 -1 0 0 0 0];

internalField   nonuniform List<scalar> 
40483
(
0
-8.14086e-07
0
-4.87055e-07
0
-2.09369e-08
-1.89952e-08
-7.35028e-07
0
4.57636e-08
-1.58758e-07
0
-3.10525e-07
3.83663e-07
-1.05959e-07
-2.03637e-07
1.6181e-07
1.81435e-07
0
0
-6.43227e-08
2.48298e-07
4.25644e-07
-4.60482e-08
-9.92395e-08
4.21939e-08
3.86445e-08
-5.72922e-09
-8.60228e-08
2.45687e-07
6.65789e-08
0
3.56836e-07
0
0
1.8931e-07
-1.78719e-08
-1.4095e-07
-6.4288e-08
0
-3.69647e-07
4.90607e-07
8.69514e-08
-7.77697e-08
-1.03502e-07
-1.20706e-07
0
-1.00767e-08
3.81597e-07
1.36373e-07
-7.94613e-08
-9.90434e-08
-1.50103e-07
-6.07613e-08
0
4.38052e-08
1.80103e-06
-7.89367e-08
5.08681e-09
6.95544e-09
0
-2.89275e-07
-1.36391e-07
-3.35721e-08
3.53925e-07
1.3097e-07
2.97045e-07
0
4.03056e-08
-8.72638e-08
-1.22754e-07
-7.46106e-08
0
0
4.13384e-08
-1.22781e-08
3.87742e-07
8.13523e-07
9.7397e-08
6.26627e-08
0
-1.12136e-08
0
2.76475e-08
1.09924e-06
-1.14359e-08
8.86895e-07
-1.26816e-07
0
-6.12339e-08
0
-1.0831e-07
-1.70158e-08
0
1.98753e-07
0
2.24211e-08
3.44574e-07
8.11096e-08
3.36318e-08
1.29957e-06
1.81043e-09
-3.21801e-07
-1.11677e-07
-3.71668e-07
-7.16241e-07
-6.85882e-08
2.12305e-08
2.17529e-07
-5.84261e-08
3.04539e-07
0
3.18967e-07
6.16295e-07
-6.53107e-07
-2.18904e-07
-9.43261e-07
0
0
-5.17121e-07
-3.45233e-07
-2.56928e-08
2.53758e-07
0
0
6.23658e-07
1.38866e-07
-3.68084e-08
-1.38025e-07
-1.62909e-07
-2.48609e-07
0
0
0
0
0
3.19618e-07
6.89425e-08
2.36839e-07
3.54286e-07
-4.34314e-08
6.66026e-07
5.10246e-07
-8.78516e-08
-1.94285e-07
6.98939e-07
-4.01045e-07
0
0
0
0
0
0
1.4085e-07
-4.02525e-08
1.88334e-07
1.86715e-07
0
-6.50069e-08
-1.1743e-07
3.04908e-07
2.35908e-07
0
1.94428e-07
-2.57546e-07
0
0
0
0
0
0
7.04819e-08
3.01489e-07
4.3813e-07
3.51619e-07
2.90581e-07
2.38435e-07
-4.24439e-08
0
2.16864e-07
-1.40804e-06
0
0
0
0
0
0
0
1.43103e-08
1.94203e-07
1.25507e-07
-1.37698e-07
1.57839e-07
-4.7497e-09
1.94603e-07
6.90268e-07
0
-2.10039e-07
0
0
0
0
0
0
0
0
0
0
0
1.8858e-07
6.14855e-08
2.30463e-07
1.83517e-07
6.89315e-07
7.02695e-08
0
0
-6.51713e-07
0
0
0
0
0
0
0
0
0
3.1194e-08
-4.4245e-08
2.65502e-07
-1.9714e-08
-3.52216e-08
2.47459e-07
-4.20847e-08
0
-7.56395e-08
0
0
0
0
0
0
0
0
0
0
0
0
2.00725e-07
0
-7.94102e-10
6.68914e-08
5.69704e-08
1.09557e-07
1.73602e-07
3.18967e-07
4.49476e-07
-6.59955e-08
0
0
0
0
0
0
0
0
0
0
0
0
3.11842e-08
-6.7203e-09
6.77584e-08
-1.88428e-10
-1.29337e-08
-4.12862e-08
-1.38839e-08
1.50469e-07
0
3.42301e-07
0
-2.34415e-09
-5.16434e-07
-2.98361e-07
0
0
0
0
0
0
0
0
0
0
0
0
8.0188e-09
1.04453e-08
7.30479e-08
-6.50614e-08
-5.53887e-09
-5.49463e-08
-3.54031e-08
1.75945e-07
1.94056e-07
-3.19875e-07
-7.8235e-07
-1.39507e-07
0
0
0
0
0
0
0
0
0
0
0
0
0
0
0
-7.38026e-08
0
-3.14695e-09
0
2.64692e-07
3.98923e-07
-3.1936e-08
-3.47869e-08
3.4192e-07
-2.38932e-07
1.99726e-07
-9.29887e-07
-4.08763e-07
-1.71339e-07
0
0
0
0
0
0
0
0
0
0
0
0
0
-4.28598e-07
-9.12808e-08
-2.3045e-08
1.47879e-07
-8.13673e-09
1.01231e-07
3.48651e-07
-4.11825e-08
-7.64705e-08
0
0
1.42697e-06
-3.74153e-07
-4.53556e-07
-8.51343e-09
0
0
0
0
0
0
0
0
0
0
0
0
0
0
0
-2.57687e-07
0
0
1.09333e-07
-1.2747e-09
-1.24988e-08
0
-1.99851e-08
4.39607e-08
-5.58644e-08
-1.63187e-07
0
-1.55826e-07
-2.44158e-06
3.02174e-06
0
0
0
0
0
0
0
0
0
0
0
0
0
0
0
0
-2.08651e-07
5.2207e-07
1.49539e-08
-3.29739e-08
1.39985e-07
3.48809e-08
-4.96922e-08
-2.05344e-07
0
4.27416e-06
-2.04797e-07
0
-2.88917e-07
3.82635e-06
0
0
0
0
0
0
0
0
0
0
0
0
0
0
-2.02617e-07
-1.0329e-07
2.04688e-07
1.03674e-06
3.31842e-06
0
0
0
-1.27535e-07
-6.02675e-08
-2.46417e-07
1.26019e-06
4.85363e-07
4.38122e-06
-7.13916e-07
1.49752e-07
0
-5.44043e-08
0
0
0
0
0
0
0
0
0
0
-5.4706e-06
0
0
0
0
0
-5.17166e-07
3.13323e-06
5.45619e-06
5.06296e-06
1.1151e-06
3.08032e-06
-1.01835e-07
-1.73782e-07
-3.20549e-07
2.88266e-07
-2.62905e-07
4.42534e-08
1.0606e-06
1.61951e-06
-5.60097e-07
-4.37341e-06
-5.63063e-06
3.62658e-06
0
0
0
0
0
0
0
0
0
0
0
-2.71334e-06
0
0
0
0
0
-5.03985e-07
-8.76157e-08
6.2808e-06
4.92756e-07
4.81943e-06
5.71602e-06
9.47746e-06
-7.26431e-07
-7.74386e-08
2.07128e-07
-7.36229e-08
3.10633e-06
-4.23327e-06
5.55351e-07
1.03913e-06
-6.78916e-07
-3.55352e-07
2.6765e-06
2.48706e-06
0
0
0
0
0
0
0
0
0
0
0
0
-5.00161e-06
-3.7588e-07
0
0
0
0
0
-9.08829e-07
9.75516e-06
2.62851e-05
5.62082e-06
-1.42117e-06
0
1.64385e-06
4.88404e-06
-2.41975e-07
3.40116e-06
-2.48956e-07
-5.18334e-08
-2.46776e-07
-7.71439e-06
-5.9935e-06
-2.29088e-06
0
2.72721e-08
5.69282e-07
5.92913e-06
0
0
0
0
0
0
0
0
0
0
0
0
0
0
0
0
0
0
-9.60524e-08
4.77324e-06
1.07827e-05
1.96537e-05
1.33039e-05
4.61216e-06
2.31061e-06
-1.51925e-06
6.05253e-06
6.79496e-06
-1.01271e-07
0
6.18598e-07
-3.77227e-06
-3.90734e-07
-6.15865e-07
-3.01018e-07
-5.21887e-07
-7.4348e-07
-1.26236e-06
1.59711e-06
0
0
0
0
0
0
0
0
0
0
0
0
0
-3.63491e-06
-1.90359e-06
0
0
0
0
0
1.40923e-06
1.69124e-05
9.4784e-06
2.03119e-06
6.99552e-07
-1.69462e-06
-1.07957e-07
2.8526e-06
4.0207e-06
3.86755e-06
2.85078e-06
-2.34908e-07
1.80968e-06
2.31896e-06
-6.10721e-07
-1.18087e-06
-5.49242e-07
-1.23966e-06
-1.35209e-06
-2.97571e-06
0
0
0
0
0
0
0
0
0
0
0
0
0
0
-1.49708e-06
0
0
0
0
-7.00782e-07
-1.43723e-06
3.21723e-06
1.49114e-05
1.12202e-06
1.97169e-06
-1.46586e-07
-5.87811e-07
0
5.24e-06
4.80641e-06
2.76654e-06
0
0
-2.6202e-06
-2.641e-06
-1.03989e-06
-1.0656e-06
-1.28353e-06
-3.89201e-06
-1.15522e-06
0
0
0
0
0
0
0
-1.02512e-05
-4.33764e-06
0
0
0
-6.16902e-07
0
0
0
0
0
2.33378e-05
3.19567e-06
-3.31974e-08
-2.12894e-06
0
4.19289e-06
3.06769e-07
0
-8.88705e-07
2.68795e-06
5.58095e-06
1.06146e-06
3.84315e-07
-1.49884e-06
1.72905e-06
-3.57502e-07
-3.00895e-06
-1.65429e-06
-5.58725e-06
-5.08936e-06
0
0
0
0
0
0
0
0
-1.63582e-05
-1.29253e-05
0
0
0
-4.49862e-06
0
0
0
0
-9.15966e-07
-6.60276e-06
3.66764e-06
2.16367e-06
2.36713e-06
-1.8038e-07
-9.21183e-09
8.17882e-07
1.32015e-06
-1.91249e-07
-9.10209e-07
3.11076e-06
2.96205e-07
-4.77997e-06
0
5.35974e-07
-6.39824e-06
-1.85616e-06
-1.04995e-06
0
0
-2.7432e-06
-7.23876e-07
0
0
0
0
0
0
0
0
0
-2.76301e-05
0
5.79866e-06
0
0
0
-1.2083e-05
0
0
0
0
0
-7.62829e-06
-8.59517e-07
-1.09086e-06
5.91468e-06
2.21295e-06
-1.47868e-07
-1.04301e-06
-1.84445e-06
-4.71068e-07
9.23984e-07
-6.87067e-07
0
-2.1367e-06
-1.06719e-06
-3.02933e-07
-1.04204e-06
4.50782e-06
-3.76918e-06
2.92913e-05
-4.12327e-06
-4.65185e-06
-3.23611e-06
0
0
0
0
0
0
0
0
0
0
0
2.19984e-05
-1.17113e-05
0
0
0
3.16447e-05
0
0
0
0
0
-2.8662e-06
7.61873e-06
1.17262e-06
8.33937e-06
8.07757e-06
0
8.64069e-08
-5.4455e-07
-1.7752e-06
-4.28471e-07
0
-5.34347e-06
2.88086e-06
-1.27914e-06
-6.79873e-06
-4.89149e-06
3.55759e-06
3.23714e-05
-4.43123e-06
-7.28253e-06
-4.46139e-06
-4.24414e-06
-2.47595e-06
0
0
0
0
0
0
0
0
0
-3.49487e-05
-2.75986e-06
3.38146e-05
0
0
-3.96257e-05
0
0
0
0
0
2.2878e-07
-4.82835e-06
0
0
-8.33502e-07
-2.61167e-06
-3.51636e-07
-2.07735e-06
-3.27885e-06
0
8.04873e-07
-4.27054e-07
0
-7.68981e-07
-8.18966e-06
4.06738e-05
-3.03675e-05
8.8208e-06
5.75128e-07
-9.5322e-06
0
0
0
0
0
0
0
0
0
0
0
0
0
-3.30789e-05
1.48306e-05
0
0
0
9.95142e-08
0
0
0
0
-8.7772e-07
-2.83702e-06
-1.65833e-05
-1.08796e-06
-4.95417e-06
-1.17491e-05
0
-1.36389e-06
-4.85475e-06
-1.15896e-06
-8.31029e-06
-9.26454e-06
-1.62544e-06
-2.41077e-06
1.20467e-06
-1.08464e-05
-2.58463e-06
-2.54712e-06
2.57002e-05
1.68402e-05
3.34447e-05
-1.95995e-05
-3.64501e-06
-2.56901e-06
-9.55154e-06
0
0
0
0
0
0
0
0
0
0
0
0
0
0
0
0
0
0
0
0
0
0
-3.42593e-06
-2.43245e-06
-2.16223e-06
0
-4.66706e-06
-1.97193e-06
-1.53009e-06
-8.65297e-06
-6.34588e-07
-7.30342e-06
-4.78755e-06
-8.61854e-06
-1.67851e-05
-1.18165e-06
-1.48796e-07
0
-6.52444e-06
-6.15246e-07
-1.31027e-06
-3.52078e-06
0.000115249
-8.46147e-05
-6.80924e-05
5.6006e-05
-1.10867e-06
2.59781e-05
-1.6171e-06
0
0
0
0
0
0
0
0
0
0
0
0
-0.000100087
0
0
0
0
0
0
0
0
0
-3.4781e-06
-2.7871e-06
-1.47921e-06
-2.14706e-05
-1.76412e-06
-6.79659e-06
0
-4.95898e-06
-8.53947e-06
-1.70539e-05
-2.42246e-06
-1.50412e-06
0
0
-6.53777e-06
-2.24826e-06
-1.2731e-06
-2.76761e-07
-3.57879e-06
0
-4.29812e-05
0.000159502
-9.51672e-05
5.3151e-05
-1.30592e-05
-6.18697e-05
-2.88246e-06
0
0
0
0
0
0
0
0
0
0
0
0
0
0
0
0
0
0
0
0
0
0
0
0
0
-3.10676e-06
0
-4.85123e-06
0
-3.03193e-06
-3.13799e-06
-4.59087e-06
0
-1.27782e-06
-1.30891e-05
-1.06114e-05
-9.12611e-06
-2.94593e-06
-6.76176e-06
-8.16305e-06
-3.19629e-06
-3.14397e-06
-1.15006e-06
-1.765e-06
0
-3.37363e-06
-3.99611e-06
-4.47928e-05
-8.91693e-05
0
0.000146828
0.000229979
0.00015188
3.54867e-05
-2.07648e-08
0
0
0
0
0
0
0
0
0
0
0
0
0
0
0
0
0
0
0
0
0
0
0
0
0
0
-1.59794e-06
2.5915e-06
-2.80111e-06
-5.65019e-06
-6.96489e-06
-3.0202e-06
-5.54505e-06
-1.28771e-05
-6.9517e-06
-4.51853e-06
-1.20356e-06
-3.52735e-06
-9.35231e-07
-5.76538e-06
-1.17329e-05
0
-4.99162e-06
0
-8.98622e-05
6.24813e-05
0
-1.46497e-05
4.69276e-05
8.82632e-05
-6.21225e-06
0
0
0
0
0
0
0
0
0
0
0
0
0
0
0
0
0
0
0
0
0
0
0
0
0
0
0
-7.31352e-07
-2.69803e-08
-3.26544e-06
0
-5.43974e-06
-3.91374e-06
-6.74313e-06
-5.67357e-06
-1.57592e-05
-4.03856e-06
-4.35658e-06
-1.09155e-05
-3.68275e-06
2.25124e-05
-2.05786e-06
-2.36857e-06
-6.38465e-06
-6.82639e-06
-4.48397e-06
0
0
-6.37518e-05
0
7.76095e-07
-2.40315e-05
-8.10537e-05
-2.28186e-05
0
0
0
0
0
0
0
0
0
0
0
0
0
0
0
0
0
0
0
0
0
0
0
0
-1.14124e-06
1.32605e-06
4.69066e-05
1.64111e-05
-8.97932e-06
8.98583e-06
-5.62896e-06
-1.68395e-06
-5.32635e-07
6.76394e-05
1.42346e-05
-1.74221e-06
-1.68673e-06
4.23896e-05
8.16022e-06
1.86045e-05
-2.95952e-06
-9.28734e-06
-9.42425e-06
6.96258e-06
0
-0.000186766
0
0
3.01876e-05
6.93151e-05
2.94007e-05
0
0
0
0
0
0
0
0
0
0
0
0
0
0
0
0
0
0
0
0
0
0
0
0
0
6.97111e-06
-4.31722e-06
6.31459e-05
-1.84461e-05
2.43629e-05
-4.76194e-06
5.16587e-05
0
3.87073e-05
-9.00941e-06
-1.23768e-06
2.04444e-05
2.28641e-05
5.42252e-05
3.04148e-05
-1.03541e-05
-2.53288e-05
-1.48478e-06
-1.71731e-05
4.86938e-05
0
0
3.06807e-05
0
2.6265e-05
-6.94469e-05
-2.7276e-05
0
0
0
0
0
0
0
0
0
0
0
0
0
0
0
0
0
0
0
0
0
0
0
0
0
0
0
2.17676e-06
0
-2.05196e-06
4.65277e-06
-1.92097e-05
2.5126e-05
-2.40518e-05
-3.95968e-06
2.88166e-06
-3.56491e-06
-1.32248e-06
5.90058e-05
0
-3.36355e-06
3.36116e-05
4.82724e-06
-3.14822e-07
6.08918e-05
-5.43976e-06
-9.19579e-06
-5.03811e-05
1.0552e-05
0
0
0
-0.000303558
0
-1.72221e-05
-8.34516e-05
-0.000105841
0
0
0
0
0
0
0
0
0
0
0
0
0
0
0
0
0
0
0
0
0
0
0
0
0
0
0
1.16929e-06
-6.58691e-07
-1.55794e-06
0
-8.12062e-07
-2.13676e-06
-5.4007e-06
5.48332e-05
-8.11774e-06
4.4988e-05
-5.08193e-06
-4.79404e-06
2.72306e-05
6.08593e-07
1.25318e-05
2.67507e-06
1.68995e-06
2.6483e-05
-1.17379e-05
-1.24916e-06
2.36369e-05
0
0
0
0
0
0
0
-2.0264e-05
0
0
0
0
-0.000167925
0
0
0
0
0
0
0
0
0
0
0
0
0
0
-2.55502e-05
0
0
-4.77267e-05
0
0
0
0
0
-8.7434e-08
-3.18477e-06
2.16709e-06
-9.88712e-06
1.38499e-06
0
1.58703e-05
-1.94242e-05
0.000233964
0
0.000173058
-1.16752e-05
0
-5.86215e-06
-7.37962e-06
1.54961e-06
-2.28416e-06
7.2665e-06
-3.39181e-07
4.41827e-07
-1.91855e-05
-8.94701e-06
-5.53975e-07
0
0
0
0
0
-5.26534e-05
0
-0.000147138
0
0
0
9.20882e-05
0
-2.36313e-05
0
0
0
0
0
0
0
0
0
0
0
-1.89954e-05
0
-1.97516e-05
0
-9.74931e-05
0
0
0
0
0
0
-7.55877e-06
-1.62851e-07
2.69103e-06
-1.2204e-05
0
-2.63811e-05
2.23048e-05
-1.68381e-05
9.32988e-05
1.43106e-05
3.04056e-05
5.11676e-05
-7.25565e-06
-5.0434e-06
-4.3578e-06
-1.59542e-06
-4.13894e-06
-1.90288e-06
-2.95376e-06
-1.2489e-06
2.42988e-05
0
1.18299e-06
0
-1.45357e-05
0
0
0
0
0
0
-5.9901e-05
0
0
-1.05324e-05
-1.07076e-05
0
-3.31545e-05
0
0
0
0
0
0
0
0
0
0
0
-1.08548e-05
-1.38064e-06
-2.33285e-06
-6.24369e-06
-0.000372589
-0.000250068
-5.77948e-05
-9.53986e-05
0
0
0
0
5.32378e-07
0
0
0
-2.95486e-06
4.87541e-06
2.85628e-06
-1.9947e-06
1.06758e-05
-6.71251e-05
0
-2.69616e-06
6.05624e-05
7.71695e-05
-1.03533e-05
-5.17441e-06
-4.00131e-06
-5.54419e-06
-2.3782e-06
-1.65718e-06
-2.33421e-06
-2.15614e-06
-1.53449e-05
-1.82821e-05
-7.91886e-06
-3.61582e-05
-1.63962e-05
-0.000326965
-0.000180495
-0.000402997
-0.000153555
0
-0.000842307
0
0
0
4.22252e-05
-0.000158035
0
0
0.000323149
0
0
0
0
0
0
0
0
0
0
0
0
0
-5.31607e-06
-8.16293e-06
-0.000305882
-2.85544e-05
7.23422e-05
0
0
0
0
0
1.47376e-06
-4.84758e-06
-2.94773e-06
9.42781e-07
-1.17089e-05
-1.67837e-05
-7.3195e-05
-6.59929e-07
-3.20253e-06
1.6226e-05
4.26464e-05
-4.18601e-06
-6.6574e-06
-2.05888e-06
-3.95756e-06
-8.06189e-07
-2.00005e-06
0
-8.997e-07
-4.47601e-07
-9.17944e-06
0
0
0
-4.24574e-05
4.33659e-06
0
0
-0.000309224
-0.000279824
-0.0010858
1.10942e-05
0
0
-2.04963e-06
-0.000111679
0
0
0.000110797
0
0
0
0
0
0
0
0
0
0
0
0
1.22022e-05
5.37407e-06
-1.06863e-06
5.71726e-06
1.92938e-06
5.7957e-05
0
0.000146519
0.000253009
0
0
0
2.10934e-06
2.74563e-06
-6.24028e-06
-7.44645e-06
0
2.43391e-06
-9.62883e-07
-1.06108e-05
-5.64971e-05
-1.17961e-06
7.20026e-05
2.47626e-06
1.47101e-06
0.000131226
-2.15094e-06
-3.82774e-06
-1.5647e-06
-7.9155e-07
-3.55249e-06
-5.24479e-06
-1.63027e-06
5.62114e-06
3.31852e-05
-5.64215e-05
-3.80149e-05
2.04574e-06
-1.31296e-05
-5.277e-05
2.71212e-06
1.0319e-05
-2.95808e-05
0
-0.000103403
0.000273758
0
0
0
5.81974e-05
-6.27244e-05
0
0
0
0.000197684
0
0
0
0
0
0
0
0
0
0
0
0
2.47005e-05
1.0791e-06
5.28618e-06
-6.47497e-07
-2.08049e-06
0
-1.74452e-05
0.000525142
0.000210485
-0.000117333
0
0
0
-3.67303e-06
-1.03974e-06
2.36359e-06
0
0
-5.0696e-06
-3.81611e-06
-1.42972e-05
-2.02614e-06
-2.23552e-06
-2.06784e-05
2.70129e-05
0.00018117
0
0
-4.00875e-06
-3.71698e-06
-5.41247e-06
0
-4.96019e-07
4.99496e-06
-1.81555e-06
-4.05659e-06
0.000157259
1.58073e-05
0.000310008
-1.5597e-05
0.000128913
5.30045e-05
0.000148224
-0.000301265
-0.000284918
-0.000146728
6.84892e-06
7.35276e-06
0
0
8.6709e-05
-5.08091e-05
-0.000202577
0
0
0.000112668
0
0
0
0
0
0
0
0
0
0
0
0
-1.68943e-06
-2.67537e-06
2.41889e-06
-9.67334e-07
6.3151e-06
1.65957e-07
2.2996e-05
7.34846e-05
-6.85085e-05
0.000252699
0.000506377
0
0
0
-1.05953e-05
-4.63773e-06
-1.93237e-06
0
-1.43758e-05
-2.33791e-06
-2.36976e-06
-1.3848e-06
-3.18535e-06
-5.85185e-06
-1.36544e-05
3.80258e-05
9.2664e-05
2.58116e-05
1.93174e-06
0.00051066
0.00015511
-3.03269e-06
8.4195e-06
-2.67805e-06
-4.10137e-06
-1.48275e-06
0.000222994
0.000294284
0.00038265
7.71967e-05
-3.98369e-06
7.29953e-05
1.43993e-05
-8.82822e-05
-5.75888e-05
0.00039075
4.45546e-06
-0.00027283
5.33187e-05
8.38395e-05
0
6.53716e-07
0.00011651
-0.00010862
0
0
0
0
0.000145417
0
0
0
0
0
0
0
0
0
0
0
0
1.88543e-05
8.12366e-06
1.90004e-06
1.69135e-06
0
0
2.45571e-05
0
0.000365833
0.000155959
-0.000104223
0
0
-7.78994e-06
-7.57275e-07
0
-3.47121e-06
-3.71794e-05
-2.27892e-06
-1.97714e-05
-2.67463e-06
-4.62438e-06
-8.76579e-06
-1.10531e-05
0
4.2255e-06
0.000235353
-6.02805e-07
-1.32791e-06
-2.52856e-07
3.87935e-05
-1.20064e-06
0
-3.95465e-06
0
-9.16509e-06
4.66378e-07
-5.79217e-06
6.82567e-05
0.00112439
0.00184682
0.000222668
8.29019e-05
4.0422e-05
0.000270218
0.000556319
0.000238337
0
0.000280128
0.00022845
0
0.000190432
0
0
2.96649e-05
8.41045e-05
0
0
-3.57171e-05
5.45654e-05
0
0
0
0
0
0
0
0
0
0
0
1.84486e-05
1.07639e-05
-3.88104e-08
5.3256e-07
2.53705e-06
-6.4618e-07
-8.98185e-07
1.68072e-05
8.85353e-05
0.000133604
0.000176802
0
0
-4.06597e-06
-5.68706e-06
-1.3334e-06
-3.33788e-06
-6.5893e-06
-6.05293e-05
-4.08499e-06
-1.27891e-05
-3.45364e-06
-1.16485e-05
-3.03338e-06
4.27506e-05
0.000346208
0
2.16017e-05
3.30096e-05
-3.87256e-06
2.93518e-05
5.51835e-05
0
-9.38363e-06
-7.60802e-06
-5.96172e-06
-4.23705e-06
0.000272851
-2.70037e-08
0.000930406
0.00126817
0.000252724
0.00048278
7.99142e-05
0.000113165
-1.60278e-05
7.17341e-05
0.000700318
0.000590169
-9.49995e-05
0.000170166
0.000131004
0
0
3.48617e-05
0.00010021
0
0
-4.71377e-05
3.02795e-05
0.000168693
0
0
0
0
0
0
0
0
0
0
0
0
2.66944e-06
8.1431e-07
9.49259e-07
2.76924e-06
-2.68564e-07
-3.78527e-07
-9.16924e-07
-2.49062e-07
3.25763e-05
5.28181e-05
8.98143e-05
5.60109e-06
0
0
-3.23533e-06
2.86755e-06
-1.0875e-05
-4.2585e-06
-1.85327e-05
0
-1.56031e-05
-1.95478e-06
-1.24697e-05
1.80095e-06
-7.31093e-06
-6.52682e-06
8.22177e-06
0.00045713
-1.14722e-05
-3.49617e-06
3.2665e-05
-1.79762e-06
3.75857e-05
6.23233e-05
3.73205e-05
-1.39421e-09
2.24193e-05
-1.10982e-05
-9.07424e-06
-6.38556e-06
-9.36028e-06
-1.47403e-05
-9.67771e-06
0
0.000597788
0.000392394
0.00083817
0.00032427
0.000204052
0.000584113
0.000346229
5.44318e-05
0.000678183
0.000225232
0
-9.33166e-07
-5.78473e-06
0
0
0
0.000107196
-3.40269e-07
0
0
0
0
0
0
0
0
0
0
0
1.61359e-06
1.08695e-06
5.85769e-07
9.57039e-07
0
9.04496e-06
-8.47875e-07
-4.75012e-07
2.83382e-05
0.000215223
0.000279892
0.000240006
0
0
0
-3.66906e-06
0
4.268e-05
-8.29734e-07
2.41375e-05
-1.00568e-05
-5.17503e-05
-3.45896e-06
-2.17615e-05
-9.43961e-06
0.000153059
-2.62601e-05
0.000330924
0
2.12067e-05
-8.63994e-06
-1.6817e-05
9.96944e-05
6.03763e-05
5.14331e-05
0.000112295
-1.89038e-06
-1.5021e-05
-9.92126e-06
-9.1573e-06
-7.88858e-06
-2.06838e-05
1.28244e-05
0.000166302
9.19297e-05
0.000343789
-1.15441e-05
0.000415689
0.000640459
0.000564669
0.000301501
0.000597773
0.000253088
0
4.52851e-07
3.46923e-05
0
0
-3.21382e-05
1.70082e-05
3.25681e-05
0
0
0
0
0
0
0
0
0
0
0
0
0
-8.11413e-07
4.67497e-07
2.12583e-07
9.72427e-07
1.48535e-07
-4.19932e-06
-1.1658e-06
-1.33929e-07
3.39971e-05
0.000361855
2.21627e-05
0.000165699
0.000119553
0
-9.67802e-07
4.48852e-05
7.94673e-05
1.35931e-05
0
4.49144e-05
-1.86433e-06
0
3.44659e-06
-2.60734e-05
-2.7673e-05
-2.50215e-05
-1.84748e-05
-8.94337e-06
0.0002028
4.93876e-05
0.000108065
-7.7225e-07
3.58179e-05
-8.13316e-06
-1.22029e-05
1.14046e-05
0
7.3225e-05
-5.04397e-06
-8.49394e-06
-8.74847e-06
-3.20368e-06
-7.83982e-06
-1.00316e-05
-1.3591e-05
-2.13129e-06
2.20903e-05
-7.32516e-06
-5.08549e-05
0.00013154
3.48003e-06
0.000195124
-1.11717e-05
0.000193051
0.000179533
0.000572013
0.000230667
0.00028975
0
4.03458e-06
0
-2.16672e-06
0.000133885
-3.10371e-06
0
0
0
0
0
0
0
0
0
0
0
0
0
0
0
0
-2.50554e-06
7.83404e-07
2.3983e-06
9.12719e-07
2.09737e-07
6.50223e-05
0.000174682
1.53898e-05
-1.31991e-06
-4.18335e-07
-5.53079e-06
0.000218171
0.000566367
0.000249347
2.7843e-05
0
2.57389e-05
2.09668e-05
5.29619e-05
9.77232e-05
-4.49458e-06
1.40637e-05
-1.3129e-05
-3.29019e-06
-5.22047e-05
0
0
0
5.4187e-05
-7.28472e-06
5.56345e-05
3.54332e-05
-4.36757e-06
0
0
-2.38559e-06
-5.86044e-06
4.66864e-06
6.48312e-05
0
-3.3521e-06
-3.0522e-06
-8.22581e-07
5.82028e-06
-7.43468e-07
8.00594e-07
0.000259385
7.49379e-05
-1.47085e-05
-1.23675e-05
-9.12923e-06
0.000208338
1.01347e-05
-6.9737e-07
5.88191e-05
0.000414232
0.000157573
0.000104608
0
-5.69106e-06
0
7.08164e-05
0.000188599
-2.64347e-06
0
5.54794e-06
0
0
0
0
0
0
0
0
0
0
0
0
0
-1.28284e-06
0
-1.87511e-07
0
2.5534e-07
1.06204e-07
0.000423095
0.000266913
0.000127105
8.45901e-07
-2.98417e-07
-2.34801e-05
6.04206e-05
-1.07417e-05
0.000473464
0.000287467
0
-9.9167e-07
0
-1.70121e-06
6.46322e-06
2.84501e-05
0.000209641
5.99086e-05
-8.66694e-06
-5.90228e-06
0
2.71594e-06
8.18755e-05
5.65121e-05
0
0
0
-1.42878e-05
-3.03849e-05
-0.000180619
0
0
5.18165e-06
-1.9564e-06
1.32309e-05
-5.28981e-06
4.10655e-05
-1.50073e-07
0
5.94833e-06
6.66582e-05
0.000162805
5.4176e-06
3.35246e-05
0
-8.64688e-06
-3.68003e-06
-2.42557e-05
6.92769e-05
0.00024887
0.000488187
-4.70483e-05
-4.33466e-05
0
0
-4.05716e-05
3.53608e-05
-3.06552e-06
-2.09608e-05
0
0
0
0
0
0
0
0
0
0
0
0
0
0
-9.60461e-08
0
0
-2.39013e-07
1.15599e-07
-6.16508e-07
2.29954e-05
0.000465815
9.25777e-05
2.99909e-05
1.73161e-06
1.30581e-05
2.62276e-05
0.00011188
0.000349471
-1.5148e-05
-2.61914e-05
0
-1.94093e-07
-2.02744e-06
1.40795e-05
-1.84327e-05
-1.64736e-05
7.91291e-05
-1.16884e-05
-1.36231e-05
-6.19274e-06
3.13875e-05
3.8934e-05
3.86935e-05
-8.63357e-06
-1.68413e-05
-7.00825e-06
-6.82907e-05
-0.000135887
-5.94617e-05
3.47936e-06
-1.07524e-05
-2.11282e-06
1.80737e-06
1.88669e-05
5.80785e-05
3.30526e-05
0
0.000141502
0.000163931
8.99119e-05
4.77016e-06
-0.000203331
-6.97568e-05
-1.13128e-05
-4.41533e-05
-2.24807e-07
0
-7.91557e-06
-6.65602e-07
-1.34802e-05
-1.15542e-05
1.07524e-05
-1.4951e-05
0
0
1.59031e-05
5.20569e-07
4.25786e-05
-7.97222e-06
0
0
0
0
0
-1.8947e-05
0
0
0
0
0
0
0
0
-9.11038e-07
0
0
-4.11195e-07
0
-7.13829e-07
0
0.000369166
0.000363384
0.000244462
5.64236e-05
8.45704e-06
1.275e-05
7.4046e-05
2.20048e-05
5.47627e-05
0.000270238
0.00015708
0
-6.74659e-06
2.89229e-05
0
0
1.36365e-05
0
-1.41852e-05
6.32054e-06
2.34949e-05
-1.58477e-05
6.48898e-06
-1.24902e-05
-1.56598e-05
-1.6175e-05
-1.69432e-05
-3.57029e-05
0
0
-1.43509e-05
-1.38654e-05
5.24766e-07
-4.72839e-07
5.84863e-05
-1.28731e-06
-6.97253e-06
-3.66142e-06
0.000111537
-1.25177e-06
0.000132511
-5.50016e-05
-3.21844e-05
-6.81135e-06
0
-2.44306e-05
6.36164e-05
-0.000106632
0
0
4.27199e-05
-7.77516e-06
-7.21299e-06
0
0
-1.6889e-05
5.8651e-06
0
0
0
0
0
0
-9.06532e-06
0
0
0
0
0
0
0
0
0
0
0
0
0
-1.79805e-06
-3.96603e-06
-4.4272e-06
5.94416e-05
-3.48061e-06
0.00050201
-2.10707e-05
0.000218945
4.23094e-05
9.29274e-06
0
-1.70433e-05
9.1219e-05
0.000155907
-0.000107292
0
-8.79943e-06
-8.90894e-06
-2.45541e-06
3.57846e-05
4.80999e-06
0
0
-1.12287e-05
8.79343e-05
6.72593e-05
-1.14467e-05
-4.63302e-05
-8.46898e-06
0
0
-1.39527e-05
-2.60671e-05
-2.37977e-05
4.31498e-06
-8.88173e-06
4.62094e-05
6.2874e-06
0
-2.04886e-05
4.99721e-05
9.63485e-05
-2.2766e-06
-3.9248e-05
-0.000147176
-9.00178e-05
-8.27422e-05
-5.95802e-05
3.62033e-05
-2.61871e-05
3.14075e-05
2.71282e-05
-8.81907e-07
0
-8.07022e-05
0
0
0
-2.13715e-07
0
4.53662e-06
0
0
0
0
0
-3.22075e-06
4.14456e-05
0
0
0
0
0
0
0
0
0
0
0
0
0
-4.61101e-07
-4.62094e-06
-1.70019e-06
-8.75017e-05
-0.00022947
7.03514e-07
-5.2725e-05
4.12831e-05
-0.000154117
-5.75469e-06
-5.27105e-05
-9.78093e-05
0
0
6.17039e-05
0
-4.64708e-05
-2.25883e-05
-3.28424e-06
0
-7.10199e-07
1.97422e-05
-1.33798e-06
-9.3747e-06
-3.29281e-07
-4.37866e-05
6.79042e-05
-1.47058e-05
-2.55422e-05
-1.13551e-05
-0.000107338
-3.37038e-05
-5.62091e-05
-4.74716e-06
-1.36422e-05
-3.50983e-05
-1.92239e-05
0
-8.99606e-06
2.35145e-05
5.11171e-06
-3.8076e-06
-1.1602e-05
-2.78763e-05
0
-3.10471e-05
-1.89457e-07
4.07108e-06
0
-2.11605e-06
-4.37814e-05
-1.14698e-05
1.2487e-05
-0.000129519
-1.85792e-05
0
5.64361e-05
-1.13082e-06
-7.31241e-06
0
0
0
0
1.34161e-05
0
0
0
0
0
-2.41007e-07
-5.83768e-06
0
0
0
0
0
0
0
0
0
0
0
0
0
7.96817e-06
0
0
-3.55089e-05
-1.68315e-05
-5.09777e-05
0.000229695
0.000550324
0.000198503
-8.65689e-07
-7.42203e-06
0
-3.07112e-05
1.92113e-05
-1.59405e-05
0
0
-7.31941e-05
-3.22892e-05
-1.22273e-05
0
3.76128e-05
-1.39648e-05
-1.64563e-05
-2.26566e-05
0.000237268
0.000326701
-2.0577e-05
-8.3214e-06
-2.93474e-05
-6.8126e-05
-6.11516e-06
0
-7.38599e-05
-0.000109637
-2.24193e-05
-1.69468e-05
-1.38924e-05
-8.15811e-06
-1.01619e-05
-5.86224e-06
-1.77152e-05
2.80146e-05
-3.72434e-05
-1.03204e-05
-1.05843e-07
-8.52967e-06
-8.32461e-06
1.06896e-05
-3.22833e-06
-2.38788e-06
-3.96717e-06
-5.05258e-05
-1.63078e-05
-6.98567e-05
1.04342e-05
-6.23796e-05
-1.56738e-05
-3.144e-05
1.12081e-05
0
0
0
0
0
0
0
-1.47619e-06
0
0
0
0
4.8917e-05
3.40216e-05
0
0
0
0
0
0
0
0
0
0
0
0
0
5.92112e-05
0.000171284
0
-5.40427e-06
-7.76189e-07
0
-6.37616e-05
-0.000196717
4.44167e-05
-5.49984e-05
0
0
-3.69344e-05
-0.000119518
-2.51577e-05
0
-2.94737e-05
-2.7165e-05
-2.28416e-05
-2.76717e-05
-1.79766e-05
-5.65586e-06
-8.02774e-06
-9.44745e-07
-1.67518e-05
5.16792e-05
-1.07766e-05
0.000182989
0.000137634
-6.15557e-06
0
-7.28474e-06
-3.97773e-06
-3.14419e-05
-7.53577e-05
0
0
-1.79005e-05
-2.53608e-05
-9.5808e-06
-2.46451e-05
-1.7131e-05
-4.6028e-06
-1.96373e-06
-1.14505e-05
-1.28461e-05
-2.45956e-05
0
-2.48621e-05
-1.08442e-05
-1.85706e-05
0
-8.32803e-06
-5.31169e-05
-3.8841e-05
-1.16252e-05
-1.54317e-05
-5.10882e-05
-2.27075e-05
0
-1.39766e-05
0
0
0
0
0
0
0
0
6.3159e-06
0
0
9.84323e-07
0
0
0
0
0
0
0
0
0
0
0
0
0
0
0
0
0
1.04388e-05
7.48815e-06
-1.52071e-05
0
-6.90273e-06
-3.42129e-06
-0.000305762
-0.000181642
-3.63877e-05
0.000231744
0.000343086
-6.38901e-05
-8.89946e-05
-2.72763e-05
-9.6724e-05
-0.000163318
-9.7959e-05
-9.30714e-05
-7.89752e-05
4.14918e-06
0
0
0
0
1.31625e-05
-7.54982e-06
-1.47942e-05
4.48959e-05
-0.00012896
0.000197197
0.000171991
0.000111282
-6.0054e-06
-1.6019e-06
9.60862e-06
-1.70172e-05
0
0
-1.79643e-05
1.58036e-05
-1.69887e-05
-4.28268e-06
-1.41981e-05
-1.75752e-05
-1.0081e-05
-9.42679e-06
0
0
-1.25098e-05
-9.80109e-06
-6.13108e-06
-6.03046e-06
-1.44366e-05
-1.30681e-05
-4.87405e-05
-9.45563e-05
-1.19005e-05
-5.51229e-06
-1.23872e-05
-4.96921e-05
2.2635e-06
5.80865e-06
0
0
0
0
0
0
0
0
-1.08889e-05
0
-2.01641e-06
0
0
0
0
0
0
0
0
0
0
0
0
0
0
0
6.38228e-05
5.62583e-05
3.97852e-05
0
-6.21209e-06
1.79956e-05
0
0
-9.24344e-05
0
0.000257731
-0.000145018
0
-7.13828e-05
0
0
-9.85132e-05
0
0
-3.16016e-05
-1.85478e-05
-2.50996e-05
-2.60831e-05
-1.78794e-05
0
5.27772e-06
-1.67027e-05
-1.30702e-05
-2.76343e-05
2.46297e-05
-1.18171e-06
0.000132136
0
0.000144823
0
-7.02742e-07
-8.27083e-05
-1.37423e-05
-2.91907e-05
-4.41294e-05
0
0
-2.70095e-05
-9.39604e-06
-4.44831e-06
-8.6998e-06
-1.01817e-05
0
-1.84935e-05
0
-1.35624e-05
2.3219e-05
-1.91931e-05
-2.58046e-05
-1.77846e-05
-1.87895e-05
-3.69701e-05
-8.70803e-06
-1.10635e-05
0
-1.94582e-05
-1.92717e-05
0
0
0
0
0
0
0
0
0
0
0
-6.36789e-06
0
0
0
0
0
0
0
0
0
0
0
0
0
0
0
0
-3.71577e-06
0.000136278
6.54324e-06
-1.5518e-05
-1.30339e-05
-7.02186e-06
-0.000507377
-0.000174182
-1.29977e-05
-0.000105243
8.77305e-05
0
0
0
0
0
-6.44022e-05
0
-9.12322e-05
0
-1.25173e-05
-9.09581e-06
-4.99501e-07
-3.25174e-07
-2.02349e-06
-1.87397e-05
-2.07219e-05
-7.62299e-06
-4.06986e-05
-1.99217e-05
5.4021e-05
1.12558e-05
-2.69333e-05
1.66221e-05
1.15331e-05
-3.42839e-06
-3.6482e-05
-9.11787e-06
-2.60381e-05
0
-7.28488e-06
-4.27648e-06
-8.14898e-06
-1.07735e-05
-1.957e-06
-4.79848e-06
2.59557e-05
4.02118e-05
3.45822e-05
1.95219e-05
1.67053e-05
-1.36352e-05
0
-7.05588e-06
-1.75755e-06
-7.65805e-06
-2.11899e-06
0
-8.09011e-05
-9.5135e-06
-4.3455e-06
0
0
0
0
0
0
0
0
0
0
0
0
0
-3.18322e-06
0
0
0
0
0
0
0
0
0
0
0
0
0
0
2.7436e-05
2.22216e-05
-4.41523e-06
2.63933e-05
-5.65601e-06
0
0
-0.000157949
-9.55722e-05
0
0
0
0
0
0
0
-2.06351e-05
0
-2.33896e-05
-8.13575e-06
-4.5812e-06
0
8.84732e-07
5.14714e-06
5.51298e-06
0
0
-1.46129e-05
-4.33572e-05
0
-2.80166e-05
-4.7685e-07
-5.80472e-05
0
-1.32542e-05
0
-1.10812e-05
0
-1.1347e-07
-8.91178e-06
-2.09741e-05
-4.69177e-06
-1.06709e-05
0
-2.93322e-06
2.47661e-05
-2.53709e-06
-1.45023e-05
0
-8.80392e-06
2.23978e-07
-3.84307e-05
0
-3.22373e-05
-7.46493e-06
-2.45629e-06
-5.3062e-06
0
0
-6.72702e-05
-3.27284e-05
-4.99484e-05
0
0
0
0
0
0
0
0
0
0
0
0
-9.00999e-06
0
0
0
6.25105e-06
0
0
0
0
0
0
0
0
0
0
0
0
0
-6.47199e-06
0
-1.14764e-05
0
-1.28799e-07
-2.35626e-05
3.50324e-05
-2.11514e-06
0
0
-6.0194e-05
0
0
0
0
0
0
0
0
-3.97613e-05
0
-3.72037e-06
-2.04471e-06
-1.75972e-06
-3.26055e-06
-1.36447e-06
-6.96631e-07
-3.24945e-07
-1.26085e-05
-3.8776e-05
-2.68997e-05
-4.44492e-05
0
-4.35648e-05
1.48018e-06
0.000117418
1.97787e-05
1.85445e-05
0
-9.37934e-06
-1.6397e-05
-3.34209e-05
-2.71399e-05
0
-7.96857e-06
-6.1733e-06
-1.10754e-06
-2.7383e-06
-2.1854e-06
1.11053e-05
0
-9.34632e-06
0
-1.37388e-05
-2.15534e-06
-4.44791e-05
0.000135875
0
-1.93697e-06
0
-3.52257e-06
-8.30808e-05
0
0
0
-8.23939e-05
0
-3.00482e-05
0
0
0
0
0
0
0
0
0
0
0
0
0
0
7.59975e-06
0
0
0
0
0
0
0
0
0
0
0
0
0
-6.53512e-06
-5.46334e-05
-6.84231e-06
-1.91371e-06
2.57421e-05
1.77997e-05
-1.16196e-06
0
0
0
0
0
0
0
0
0
0
0
0
-1.77207e-06
-3.6819e-06
0
-4.41235e-07
-1.0429e-07
-4.66603e-07
0
-1.13737e-07
-6.42486e-06
0
0
-2.94149e-05
7.16104e-07
-2.40395e-05
-2.62384e-06
0
-4.75051e-05
-4.96139e-05
-1.68422e-05
0
-6.77225e-06
-2.82874e-05
-1.31482e-05
0
-5.08308e-06
-3.47667e-05
-3.24397e-06
-4.94244e-06
-2.51221e-06
6.8178e-05
-6.35782e-06
-3.18187e-06
-8.44388e-06
-3.22358e-05
-1.03282e-05
-3.28085e-05
-1.68103e-05
1.85828e-05
1.0748e-05
1.34516e-05
-6.8583e-05
-4.58108e-05
0
0
0
0
-4.32738e-05
0
0
0
0
0
-1.58056e-05
0
0
0
0
0
0
0
0
0
-6.52943e-06
0
-5.06419e-06
0
0
0
0
0
0
0
0
0
0
0
0
0
0
0
0
-1.96197e-06
0
1.56113e-05
8.69929e-06
-5.77903e-06
0
0
0
0
0
0
0
0
0
0
-1.35695e-06
1.17806e-05
-3.92414e-07
2.22903e-06
-2.6242e-07
-8.04429e-07
0
2.60243e-05
-6.41303e-06
4.75308e-05
-8.12753e-06
-1.04142e-05
-5.58769e-06
6.99422e-05
4.97886e-05
-3.41441e-05
-2.90556e-05
-4.1659e-05
-4.66869e-05
0
-2.68386e-05
0
-7.70254e-06
-4.9787e-06
-7.69806e-07
0.000171321
5.28579e-05
-7.71004e-06
-1.26079e-05
-2.92626e-05
-3.14673e-05
-0.00011725
-3.88648e-06
-1.0786e-05
-6.11228e-05
0
-4.05556e-05
0
0
0
0
0
0
0
0
-8.63702e-06
0
-1.05596e-06
0
0
0
0
0
0
0
0
0
0
0
0
0
0
0
0
0
0
0
0
0
0
0
0
0
0
0
0
-1.75715e-05
0
-1.03461e-05
-1.45109e-06
4.20698e-06
9.71353e-06
3.78143e-05
0
0
0
0
0
0
0
0
0
0
0
-1.00232e-06
-4.09735e-08
0
-2.2217e-07
-4.30084e-07
7.9289e-07
0
-1.59685e-07
6.28468e-05
-1.29089e-05
0.00017092
-2.8192e-05
7.63103e-05
-5.3851e-06
-3.23156e-05
1.94022e-05
8.12576e-07
-1.74574e-05
0
0
-5.48459e-06
-5.41487e-06
-4.15544e-05
-4.47455e-05
-7.43779e-06
-3.42625e-06
7.47628e-05
0.000164109
3.20486e-05
-1.2912e-05
-5.50654e-05
-0.000147718
-5.43314e-05
-0.000221545
2.9986e-07
0
-7.39205e-05
-7.39026e-07
0
0
0
0
0
0
0
-1.60915e-06
-4.53217e-06
0
-6.23253e-06
0
0
0
0
0
0
0
0
0
0
1.57367e-06
0
0
0
0
0
0
0
0
0
0
0
0
0
0
0
0
0
-1.69556e-05
0
4.56459e-07
-8.07685e-06
3.94676e-05
2.99916e-06
1.3127e-05
0
0
0
0
0
0
0
0
0
0
0
0
-6.47453e-07
-1.95097e-07
-4.67001e-06
8.7599e-07
-1.03135e-07
0
-2.53549e-07
3.61228e-07
0.000196285
-1.38721e-05
-0.000134537
-2.9206e-05
-5.81798e-05
-1.80844e-05
-3.80132e-06