# Probe 0 (605.29 4801.18 50)
# Probe 1 (800.16 4503.7 50)
# Probe 2 (897.8 4127.91 50)
# Probe 3 (729.96 4205.34 50)
# Probe 4 (718.8 3820.61 50)
# Probe 5 (512.67 4464.77 50)
# Probe 6 (519.65 4486.37 50)
# Probe 7 (1064.67 4397.45 50)
# Probe 8 (582.65 4268.11 50)
# Probe 9 (501.34 3840.54 50)
# Probe 10 (660.39 4022.16 50)
# Probe 11 (658.6 4022.78 50)
# Probe 12 (510.69 4273.08 50)
# Probe 13 (730 3650 50)
# Probe 14 (1450 3650 50)
# Time            0                 1                 2                 3                 4                 5                 6                 7                 8                 9                 10                11                12                13                14               
0                 0                 0                 0                 0                 0                 0                 0                 0                 0                 0                 0                 0                 0                 0                 0                
31557600          -2.010879764e-32  4.126850235e-32   2.67026975e-39    8.187082813e-26   3.337666744e-47   5.199276068e-05   0.001456825874    4.336100801e-57   5.703065248e-17   5.528788659e-48   1.481544023e-34   1.890877773e-34   1.043231178e-18   1.48774214e-57    1.228521749e-80  
63115200          -6.996379408e-29  6.017766476e-29   1.092114186e-33   1.661151217e-20   4.40230529e-40    0.0002735997498   0.003543785898    1.553442695e-52   7.095055344e-13   4.33010687e-42    1.010556318e-27   1.295502853e-27   4.535042309e-15   8.497807238e-51   3.910269999e-75  
94672800          -1.727066856e-25  1.890284511e-24   3.493621517e-27   5.18374094e-16    3.631629036e-32   0.0007368521006   0.006223547012    1.763957279e-44   4.636928259e-10   1.029217265e-34   7.720049118e-22   9.373999431e-22   4.456531146e-12   2.772825832e-41   1.98063376e-63   
126230400         -6.171988918e-23  1.561221213e-22   2.6466584e-24     6.75088688e-14    1.419915466e-28   0.001195613261    0.008424750835    6.17717318e-42    8.286349892e-09   2.185956265e-31   4.591840353e-19   5.468057964e-19   9.50488755e-11    2.732389058e-37   3.236927262e-59  
157788000         -1.069159899e-20  4.015765915e-20   5.256797156e-21   8.886432733e-12   1.570481516e-24   0.001968032835    0.01157897427     1.344752665e-38   1.204634705e-07   1.623282242e-27   4.144212615e-16   4.780684156e-16   2.125617101e-09   1.352228691e-32   3.516651816e-55  
189345600         -1.973453786e-19  1.633732135e-18   6.385958201e-19   1.335126995e-10   6.294127617e-22   0.002664568295    0.01416883679     7.829020749e-36   5.096342436e-07   5.69555693e-25    2.229319086e-14   2.524103624e-14   1.252161812e-08   2.274620173e-29   1.417323245e-50  
220903200         -1.968966441e-18  7.689241856e-17   6.183128954e-17   1.656347919e-09   2.371462345e-19   0.00359963667     0.0159620432      9.154416862e-33   2.013719785e-06   2.658299002e-22   1.025252947e-12   1.137720893e-12   7.114587883e-08   4.350765709e-26   1.07428319e-46   
252460800         -2.814008746e-18  1.20488487e-15    1.698468845e-15   1.063334765e-08   2.206546177e-17   0.004235221218    0.01489489276     5.378279069e-31   5.669386844e-06   2.609280659e-20   1.787868846e-11   1.953387878e-11   2.614763646e-07   1.38895336e-23    2.11575989e-44   
284018400         4.611425534e-17   6.074661235e-15   1.17469189e-14    3.010819281e-08   3.094687103e-16   0.004451739814    0.01370134304     5.644679266e-30   1.012281357e-05   3.874967384e-19   8.888544262e-11   9.631573686e-11   5.466329804e-07   4.42998938e-22    7.263145834e-43  
315576000         8.790802413e-16   6.814293251e-14   1.872566929e-13   1.229343934e-07   1.121402802e-14   0.004484494631    0.01124791008     3.246125101e-28   2.222480435e-05   1.853555664e-17   7.589386307e-10   8.138357716e-10   1.515604714e-06   5.875092676e-20   5.378463335e-40  
347133600         4.13049343e-15    3.5931161e-13     1.212747273e-12   3.183383566e-07   1.27903849e-13    0.004282649578    0.008876470677    7.702094721e-27   3.797918144e-05   2.589538562e-16   3.222249643e-09   3.429573946e-09   3.038341555e-06   1.708556117e-18   3.164162226e-38  
378691200         1.08411834e-14    1.121217393e-12   4.327999846e-12   6.063674532e-07   6.643702198e-13   0.004020027266    0.006893471619    6.466989434e-26   5.449733517e-05   1.534811325e-15   8.517759269e-09   9.018853045e-09   4.877493842e-06   1.701726507e-17   4.669499296e-37  
410248800         3.342040271e-14   4.009537915e-12   1.780181378e-11   1.22761562e-06    4.029057054e-12   0.003535464285    0.004442676964    6.793096683e-25   8.006450555e-05   1.094754406e-14   2.452525609e-08   2.582890741e-08   8.171926447e-06   2.166424859e-16   1.034154532e-35  
441806400         9.874915074e-14   1.201879143e-11   5.948713075e-11   2.218528449e-06   1.814091125e-11   0.003044034188    0.003481089939    5.192735585e-24   0.0001092566469   5.802011705e-14   5.916586996e-08   6.204669487e-08   1.256342577e-05   1.860554101e-15   1.694598384e-34  
473364000         3.37975552e-13    3.598792068e-11   1.937389902e-10   3.89185665e-06    7.53043467e-11    0.002605792509    0.002851407284    4.238415925e-23   0.0001445702486   2.945608277e-13   1.364302415e-07   1.424820386e-07   1.883663901e-05   1.438215681e-14   3.851691117e-33  
504921600         8.835033253e-13   7.875817978e-11   4.501246724e-10   5.810405759e-06   2.070496842e-10   0.002340272193    0.002506305483    1.997897507e-22   0.0001750458367   9.371429003e-13   2.471822262e-07   2.574258536e-07   2.501984279e-05   6.226319593e-14   3.166313253e-32  
536479200         3.085449652e-12   2.018676811e-10   1.219926606e-09   9.142035007e-06   6.495080646e-10   0.002058443794    0.002162959379    1.603209333e-21   0.0002139991845   3.611397353e-12   4.840381923e-07   5.024922295e-07   3.427720619e-05   3.291288665e-13   7.615426602e-31  
568036800         9.063025455e-12   4.574805479e-10   2.940300965e-09   1.350718566e-05   1.737472242e-09   0.001845382279    0.001913425332    1.050496011e-20   0.0002513750417   1.149439856e-11   8.622239851e-07   8.924730989e-07   4.458854169e-05   1.378652329e-12   1.091190369e-29  
599594400         2.412358124e-11   9.711453519e-10   6.608858489e-09   1.917800481e-05   4.183124206e-09   0.001677101845    0.001721320703    6.410830053e-20   0.0002874852637   3.227940112e-11   1.442170927e-06   1.488778146e-06   5.604778067e-05   4.941920792e-12   1.431943048e-28  
631152000         6.083335268e-11   1.970778599e-09   1.37049672e-08    2.616232792e-05   9.270643626e-09   0.001537608578    0.001565299566    3.761800767e-19   0.0003217230253   8.373588407e-11   2.296880355e-06   2.365810456e-06   6.850187701e-05   1.571971134e-11   2.282224437e-27  
662709600         1.080542346e-10   3.096704864e-09   2.144916835e-08   3.160803402e-05   1.541641704e-08   0.001454234514    0.001473463333    1.17016585e-18    0.0003438384854   1.553587641e-10   3.089428573e-06   3.177781674e-06   7.749655758e-05   3.288846189e-11   1.47448276e-26   
694267200         2.165623648e-10   5.427528034e-09   3.731228279e-08   3.968802507e-05   2.940996665e-08   0.001344899235    0.001355069609    4.694615405e-18   0.000369832282    3.410110186e-10   4.478831165e-06   4.598357867e-06   8.970393142e-05   8.418212517e-11   1.262540545e-25  
725824800         4.080029804e-10   9.045360061e-09   6.156955521e-08   4.843734949e-05   5.256002775e-08   0.001253017307    0.001256523472    1.702319013e-17   0.0003927509868   6.987800476e-10   6.23541465e-06    6.391282562e-06   0.0001018144554   1.966890211e-10   9.967724128e-25  
757382400         7.168220659e-10   1.432891668e-08   9.656297908e-08   5.762924511e-05   8.846513897e-08   0.001176051024    0.001174647213    5.365848701e-17   0.0004127059985   1.33498376e-09    8.36103919e-06    8.557407977e-06   0.0001135471225   4.211200526e-10   6.369777635e-24  
788940000         1.42386793e-09    2.521415773e-08   1.674317384e-07   7.044684345e-05   1.667874519e-07   0.001079425381    0.001073163847    2.214952627e-16   0.0004330750584   2.961826948e-09   1.185772562e-05   1.211346574e-05   0.0001281762029   1.070103332e-09   6.237248643e-23  
820497600         2.310763953e-09   3.774367749e-08   2.47773673e-07    8.096450058e-05   2.613153631e-07   0.001016995081    0.001007977479    6.119092039e-16   0.0004470082031   5.223111456e-09   1.514115011e-05   1.544696826e-05   0.0001392367758   2.07572455e-09    3.133145414e-22  
852055200         3.247723152e-09   5.024961258e-08   3.270953352e-07   8.905078313e-05   3.593567799e-07   0.0009726116424   0.0009619564073   1.263067454e-15   0.0004554793246   7.818794298e-09   1.795496739e-05   1.829942015e-05   0.0001471048609   3.329175134e-09   9.655486337e-22  
883612800         5.170403767e-09   7.431511752e-08   4.777168546e-07   0.0001006795672   5.536893918e-07   0.0009088865507   0.0008963950494   3.479068928e-15   0.0004635801425   1.35790794e-08    2.250938895e-05   2.291011564e-05   0.0001573127417   6.360651603e-09   4.655550873e-21  
915170400         7.145455679e-09   9.771653477e-08   6.223051683e-07   0.000108746453    7.498503952e-07   0.0008570463207   0.0008436234001   7.161994205e-15   0.0004642353939   2.005719026e-08   2.619841487e-05   2.663756251e-05   0.0001632342939   1.008068184e-08   1.402582027e-20  
946728000         9.72662833e-09    1.269520931e-07   8.015505738e-07   0.0001173380721   1.000093602e-06   0.0008156253438   0.0008014156305   1.426673199e-14   0.0004668609745   2.905228944e-08   3.029548628e-05   3.077549248e-05   0.0001696331295   1.562767364e-08   4.006263017e-20  
978285600         1.364844223e-08   1.693177643e-07   1.057203224e-06   0.0001267269246   1.367561364e-06   0.0007676315984   0.0007528070316   3.117054807e-14   0.0004665589112   4.373389557e-08   3.532605489e-05   3.584878151e-05   0.0001757394329   2.529029242e-08   1.356972407e-19  
1009843200        1.803567656e-08   2.149578008e-07   1.330713905e-06   0.000135017229    1.771772471e-06   0.0007310092672   0.0007157945217   5.954395697e-14   0.0004664156318   6.143420711e-08   4.0082712e-05     4.064127809e-05   0.0001809355328   3.773184771e-08   3.701710222e-19  
1041400800        2.345054957e-08   2.695006798e-07   1.658190965e-06   0.000143446679    2.261342317e-06   0.0006997192901   0.0006841984925   1.105456528e-13   0.0004668859865   8.4704606e-08     4.51430109e-05    4.573514456e-05   0.0001861305641   5.507867921e-08   9.58626781e-19   
1072958400        3.085869379e-08   3.415820283e-07   2.081603304e-06   0.0001527716912   2.911963914e-06   0.0006699480182   0.0006541557213   2.140758181e-13   0.0004678316688   1.184576457e-07   5.106310856e-05   5.169148017e-05   0.0001917776702   8.163677663e-08   2.707757902e-18  
1104516000        4.081200283e-08   4.347378948e-07   2.614821038e-06   0.0001614863803   3.77005645e-06    0.0006339778954   0.0006181383922   4.268871061e-13   0.0004642287793   1.678134214e-07   5.758865596e-05   5.824753338e-05   0.000195973498    1.227739676e-07   8.08210837e-18   
1136073600        5.085775028e-08   5.259482006e-07   3.12953996e-06    0.0001689076558   4.623560401e-06   0.0006088060494   0.000592935724    7.366372594e-13   0.000462449642    2.210689018e-07   6.337523697e-05   6.405813562e-05   0.000199728989    1.695811038e-07   1.901322174e-17  
1167631200        6.361822911e-08   6.381743715e-07   3.751791106e-06   0.0001760878849   5.682705652e-06   0.0005815820613   0.0005657809668   1.303179629e-12   0.0004586251231   2.929964371e-07   6.962815485e-05   7.033008475e-05   0.0002027791477   2.35872702e-07    4.677894872e-17  
1199188800        7.775201561e-08   7.591387614e-07   4.413638704e-06   0.0001826861382   6.832773127e-06   0.0005583131066   0.0005425996874   2.186596213e-12   0.0004551365954   3.772017391e-07   7.570043804e-05   7.641710591e-05   0.0002054894116   3.171803373e-07   1.061271589e-16  
1230746400        8.9468205e-08     8.576379491e-07   4.947910091e-06   0.0001877542221   7.774338685e-06   0.0005440491203   0.0005283794204   3.138095453e-12   0.0004537023257   4.500214668e-07   8.034300085e-05   8.106971083e-05   0.0002077997995   3.899652571e-07   1.876024938e-16  
1262304000        1.123987375e-07   1.044462588e-06   5.94309384e-06    0.0001945105657   9.566406995e-06   0.0005153822274   0.0004999728031   5.780441766e-12   0.0004464473727   6.00650488e-07    8.786496467e-05   8.859581928e-05   0.0002094879357   5.475616556e-07   4.958667854e-16  
1293861600        1.29924219e-07    1.183810554e-06   6.675655167e-06   0.0001986104563   1.090845532e-05   0.0004970236042   0.0004818237826   8.566598831e-12   0.0004410703233   7.218276292e-07   9.286829592e-05   9.359713198e-05   0.0002101917716   6.798768477e-07   9.248913578e-16  
1325419200        1.529536837e-07   1.363438429e-06   7.611727918e-06   0.0002033526778   1.264321577e-05   0.0004773377302   0.0004623767442   1.337163027e-11   0.0004351808256   8.874656029e-07   9.882317812e-05   9.954773372e-05   0.0002110092554   8.679005132e-07   1.864007582e-15  
1356976800        1.724155237e-07   1.510100774e-06   8.358164416e-06   0.0002047404302   1.405888455e-05   0.0004567025235   0.0004421208173   1.89647665e-11    0.000425345476    1.035205193e-06   0.000102601036    0.0001033094073   0.0002091271895   1.042841669e-06   3.248455966e-15  
1388534400        2.017916447e-07   1.72990378e-06    9.476730065e-06   0.000208473275    1.618377598e-05   0.0004366579041   0.0004223982515   2.960114176e-11   0.0004175176582   1.264414645e-06   0.0001084938015   0.0001091876334   0.0002088067045   1.322721115e-06   6.561421706e-15  
1420092000        2.249977074e-07   1.899425053e-06   1.032538762e-05   0.0002101092123   1.782250061e-05   0.0004206390528   0.0004066900653   4.074791134e-11   0.0004098319606   1.454345373e-06   0.0001123577329   0.0001130338793   0.0002074918337   1.562614108e-06   1.091769301e-14  
1451649600        2.525112295e-07   2.097996714e-06   1.132142983e-05   0.0002120804098   1.974198877e-05   0.0004049298577   0.0003912870961   5.726217518e-11   0.0004023486622   1.686679364e-06   0.0001166702019   0.0001173261455   0.0002063390049   1.86472481e-06    1.872373986e-14  
1483207200        2.796893981e-07   2.293217219e-06   1.230967058e-05   0.0002147198594   2.162839343e-05   0.0003937446817   0.0003803047265   7.703528458e-11   0.0003977977672   1.921431544e-06   0.0001209675687   0.0001216059631   0.0002062353723   2.177302859e-06   2.984035303e-14  
1514764800        3.135944372e-07   2.534165275e-06   1.35041389e-05    0.0002181468368   2.39590196e-05    0.0003828584688   0.0003696027592   1.071241165e-10   0.000393865201    2.222028145e-06   0.000126163761    0.0001267852534   0.000206622708    2.587316339e-06   5.038844694e-14  
1546322400        3.6033701e-07     2.85782736e-06    1.506374588e-05   0.0002208653733   2.709709256e-05   0.0003668214309   0.0003538987881   1.624366209e-10   0.0003861069716   2.658733873e-06   0.0001321417026   0.0001327331977   0.00020561988     3.20057459e-06    9.912354238e-14  
1577880000        3.914872371e-07   3.070862595e-06   1.607991421e-05   0.0002227087146   2.916719227e-05   0.0003581218115   0.0003453824843   2.079994004e-10   0.0003820491059   2.959747732e-06   0.0001359423535   0.0001365145672   0.0002052664247   3.632402559e-06   1.482839829e-13  
1609437600        4.354787825e-07   3.367690399e-06   1.74827081e-05    0.0002249896126   3.20495015e-05    0.000347093522    0.0003345922209   2.863597708e-10   0.000376725741    3.396195652e-06   0.0001409244607   0.0001414697583   0.0002047270751   4.273840776e-06   2.494602559e-13  
1640995200        4.700422265e-07   3.594631789e-06   1.85309727e-05    0.0002253023957   3.424092274e-05   0.0003366796519   0.0003244389763   3.650381412e-10   0.0003702734458   3.752027965e-06   0.000143947707    0.0001444652234   0.0002030105615   4.812908127e-06   3.715824825e-13  
1672552800        5.18684069e-07    3.911738434e-06   1.999476371e-05   0.0002263022858   3.729988892e-05   0.0003249149691   0.0003129688862   4.960824649e-10   0.0003632859788   4.261340863e-06   0.0001482047942   0.0001486885302   0.0002013940729   5.602001176e-06   6.115824841e-13  
1704110400        5.571201326e-07   4.159497644e-06   2.113094457e-05   0.0002270780347   3.967986471e-05   0.0003167559695   0.0003050157663   6.205555873e-10   0.0003583923898   4.670985126e-06   0.0001513699054   0.0001518269122   0.0002002722605   6.252330541e-06   8.793663771e-13  
1735668000        5.968014041e-07   4.408886067e-06   2.225186205e-05   0.0002265265766   4.205348063e-05   0.0003066813668   0.0002952228443   7.796865201e-10   0.0003512550231   5.106672163e-06   0.0001537827331   0.0001542077146   0.0001979175279   6.964389391e-06   1.277556756e-12  
1767225600        6.474808162e-07   4.726417444e-06   2.368243088e-05   0.0002265421439   4.506895373e-05   0.0002963600895   0.0002851888971   1.01546627e-09    0.0003442022586   5.669859509e-06   0.0001570115619   0.0001574001195   0.0001957850436   7.903042213e-06   1.962129129e-12  
1798783200        6.803343189e-07   4.918976019e-06   2.449788514e-05   0.0002232512206   4.684615959e-05   0.0002844684827   0.000273677635    1.23067082e-09    0.0003338981443   6.05815539e-06    0.0001572010554   0.0001575542717   0.0001913311296   8.5855616e-06     2.70133098e-12   
1830340800        7.255682589e-07   5.195450957e-06   2.57226498e-05    0.0002227759212   4.944298585e-05   0.0002760718146   0.0002655262872   1.526342649e-09   0.0003276945934   6.580179184e-06   0.0001594973425   0.0001598181978   0.0001892209003   9.496441545e-06   3.836131385e-12  
1861898400        7.709292432e-07   5.465790429e-06   2.689347671e-05   0.0002211548548   5.195831761e-05   0.0002664589132   0.0002562141171   1.891714373e-09   0.0003198676772   7.121989294e-06   0.0001610217102   0.0001613072064   0.000186138792    1.046635143e-05   5.464526735e-12  
1893456000        8.124812801e-07   5.711621447e-06   2.795117533e-05   0.000219819605    5.424537151e-05   0.0002585263231   0.0002485305258   2.277829346e-09   0.000313359816    7.628650342e-06   0.0001623906059   0.0001626453314   0.0001835753044   1.138812244e-05   7.427473309e-12  
1925013600        8.59619786e-07    5.992698632e-06   2.916932298e-05   0.0002194671778   5.687945069e-05   0.0002519915472   0.0002421941741   2.753612523e-09   0.0003083972283   8.207492545e-06   0.0001645027873   0.0001647276217   0.0001818677801   1.24459581e-05    1.014843844e-11  
1956571200        9.154676649e-07   6.323514199e-06   3.059163269e-05   0.0002192935462   5.998502559e-05   0.0002452818123   0.0002356874599   3.39907822e-09    0.0003033676808   8.906761939e-06   0.0001670315112   0.0001672230245   0.0001802015875   1.373816884e-05   1.438236248e-11  
1988128800        9.615713885e-07   6.591565285e-06   3.172240612e-05   0.0002185899815   6.248946405e-05   0.0002393535106   0.0002299466772   4.029114245e-09   0.0002985773356   9.500431928e-06   0.000168699334    0.0001688624394   0.0001784135945   1.485618589e-05   1.910412598e-11  
2019686400        1.018456494e-06   6.915824429e-06   3.306294063e-05   0.0002171304365   6.550080359e-05   0.0002317105092   0.0002225519216   4.948348611e-09   0.0002920522165   1.025002978e-05   0.0001702861185   0.0001704133886   0.0001757885375   1.629678667e-05   2.696305569e-11  
2051244000        1.051870733e-06   7.10581251e-06    3.38480745e-05    0.0002165512337   6.72644016e-05    0.0002278828198   0.0002188486484   5.540913001e-09   0.0002888486766   1.069259897e-05   0.0001713207705   0.0001714287244   0.0001745465696   1.715520585e-05   3.25753251e-11   
2082801600        1.10020959e-06    7.376693648e-06   3.495273466e-05   0.0002153501334   6.975834652e-05   0.0002221166028   0.0002132741692   6.506606167e-09   0.0002838166932   1.134175856e-05   0.0001725151378   0.0001725942211   0.0001724881111   1.84346744e-05    4.25832042e-11   
2114359200        1.157141433e-06   7.692703666e-06   3.623336103e-05   0.0002139776398   7.265086364e-05   0.0002157944977   0.000207162832    7.797596296e-09   0.0002782337997   1.211232026e-05   0.000173829879    0.0001738762192   0.0001701820408   1.998093298e-05   5.748501536e-11  
2145916800        1.20615581e-06    7.960248494e-06   3.730205948e-05   0.0002124850556   7.507427676e-05   0.0002102463208   0.000201803612    9.08390676e-09    0.0002731469844   1.278473338e-05   0.000174664783    0.0001746828781   0.0001679808977   2.135803313e-05   7.404655387e-11  
2177474400        1.245580807e-06   8.16753331e-06    3.809837503e-05   0.0002102978989   7.690750698e-05   0.0002046795975   0.0001964343177   1.033647186e-08   0.0002676539629   1.334029636e-05   0.0001746307592   0.00017462359     0.0001653875109   2.253148929e-05   9.189830625e-11  
2209032000        1.296724114e-06   8.442629903e-06   3.918795638e-05   0.0002088258042   7.936722576e-05   0.0001995223441   0.0001914559132   1.199653904e-08   0.0002628251521   1.40503625e-05    0.0001753790962   0.0001753443675   0.0001632607706   2.403048951e-05   1.175187398e-10  
2240589600        1.32573472e-06    8.573400016e-06   3.959879119e-05   0.0002044021215   8.039732825e-05   0.0001921275417   0.0001843390361   1.353132738e-08   0.0002546925411   1.449842817e-05   0.0001733855811   0.0001733263372   0.0001589706282   2.506711165e-05   1.445816777e-10  
2272147200        1.367748565e-06   8.791400081e-06   4.04330774e-05    0.0002025538836   8.229707694e-05   0.0001874465469   0.0001798262189   1.531499041e-08   0.0002500045627   1.509821057e-05   0.0001734467092   0.0001733639534   0.0001567429104   2.63853181e-05    1.776454017e-10  
2303704800        1.409506752e-06   8.996101311e-06   4.116622308e-05   0.0001993332257   8.401508117e-05   0.000181260066    0.0001738703671   1.753917419e-08   0.0002434009495   1.571958074e-05   0.0001725115488   0.0001724032448   0.0001533748103   2.780117756e-05   2.235335561e-10  
2335262400        1.451087669e-06   9.202134244e-06   4.191403932e-05   0.0001967321382   8.576147284e-05   0.0001760442669   0.0001688486539   1.98899822e-08    0.0002378729263   1.634020411e-05   0.0001719311615   0.000171799502    0.0001505880288   2.92183865e-05    2.764198857e-10  
2366820000        1.490775512e-06   9.404756406e-06   4.267552631e-05   0.0001952823061   8.752218349e-05   0.0001724654071   0.0001654002693   2.212308377e-08   0.0002342339197   1.692669146e-05   0.0001720462554   0.0001718950395   0.0001488461045   3.054298376e-05   3.302791514e-10  
2398377600        1.532285567e-06   9.615592547e-06   4.346148151e-05   0.0001938568811   8.93564958e-05    0.0001689590118   0.0001620221502   2.464285011e-08   0.0002306584149   1.754722204e-05   0.0001721947228   0.0001720237029   0.0001471348795   3.195122533e-05   3.958644931e-10  
2429935200        1.580808483e-06   9.851213071e-06   4.428994021e-05   0.0001911765979   9.135452595e-05   0.0001638468647   0.0001571021167   2.819248596e-08   0.000225147204    1.829943577e-05   0.0001716122504   0.0001714176037   0.0001443285658   3.370348184e-05   4.979255161e-10  
2461492800        1.624923351e-06   1.006777379e-05   4.506203424e-05   0.0001893276406   9.320801548e-05   0.0001600330363   0.0001534307418   3.155693144e-08   0.0002211008595   1.897966285e-05   0.0001714470343   0.0001712321748   0.000142315415    3.52881354e-05    6.024976482e-10  
2493050400        1.666194522e-06   1.027155769e-05   4.579557477e-05   0.000187970306    9.496223428e-05   0.0001569987946   0.0001505086986   3.484927925e-08   0.000217927898    1.961291427e-05   0.0001715181373   0.0001712856526   0.0001407703322   3.676727567e-05   7.119455179e-10  
2524608000        1.709423847e-06   1.047546558e-05   4.648781422e-05   0.0001857498643   9.666245886e-05   0.0001530409354   0.0001467010404   3.893910481e-08   0.0002135676769   2.029342678e-05   0.0001709732277   0.0001707214177   0.0001385195173   3.839966672e-05   8.598100255e-10  
2556165600        1.744686806e-06   1.064030171e-05   4.704241016e-05   0.0001839661569   9.802625471e-05   0.0001499305833   0.0001437088959   4.255462605e-08   0.0002101158278   2.084932715e-05   0.0001705114937   0.0001702441395   0.0001367288462   3.974912587e-05   9.995785456e-10  
2587723200        1.783582877e-06   1.081726912e-05   4.761809545e-05   0.0001816948524   9.945563702e-05   0.0001462586415   0.0001401782468   4.703656208e-08   0.0002059543667   2.146867076e-05   0.0001697356718   0.0001694513869   0.0001345232406   4.128213438e-05   1.18527946e-09   
2619280800        1.811919922e-06   1.093299103e-05   4.793328882e-05   0.0001788929209   0.0001003016119   0.0001424242999   0.0001364950762   5.125884172e-08   0.0002014042516   2.194051921e-05   0.0001682884776   0.0001679902373   0.0001319975207   4.251176053e-05   1.374925432e-09  
2650838400        1.860383934e-06   1.116253882e-05   4.873184439e-05   0.0001773610868   0.0001022012151   0.0001394285115   0.0001336131443   5.700554111e-08   0.0001981346029   2.26894446e-05    0.000168178739    0.0001678623026   0.0001303472656   4.436327989e-05   1.641552505e-09  
2682396000        1.870829828e-06   1.116750874e-05   4.855041606e-05   0.0001729868631   0.0001019576515   0.000134596689    0.000128977575    6.131768368e-08   0.0001920034315   2.292361233e-05   0.0001650961749   0.0001647705212   0.0001267256459   4.513837935e-05   1.872911838e-09  
2713953600        1.90794597e-06    1.132774754e-05   4.904323647e-05   0.0001706785814   0.0001031803449   0.000131257777    0.000125769798    6.739944698e-08   0.0001880728014   2.352068668e-05   0.000164085485    0.0001637449011   0.0001245729535   4.67053827e-05    2.1989453e-09    
2745511200        1.92968552e-06    1.140345306e-05   4.918982607e-05   0.0001678485059   0.0001036323208   0.0001278413649   0.0001224913361   7.258196741e-08   0.0001838409053   2.390123513e-05   0.0001623403918   0.0001619897357   0.0001221326458   4.77866426e-05    2.502967499e-09  
2777068800        1.94920879e-06    1.147382802e-05   4.933963134e-05   0.00016559879     0.0001040752789   0.0001251109892   0.0001198707554   7.728728838e-08   0.0001804607066   2.424117342e-05   0.0001609810505   0.0001606219166   0.0001201878441   4.874592049e-05   2.792552366e-09  
2808626400        1.98808042e-06    1.164304091e-05   4.98667811e-05    0.0001637270248   0.0001053866089   0.0001223567457   0.0001172258279   8.457966127e-08   0.000177218592    2.487234945e-05   0.0001602588632   0.0001598862361   0.0001184207688   5.04102277e-05    3.254310466e-09  
2840184000        2.02278118e-06    1.179213019e-05   5.032133765e-05   0.000162032127    0.0001065346611   0.0001199327811   0.0001148978841   9.161866945e-08   0.0001743405132   2.544166524e-05   0.0001595749606   0.0001591904412   0.0001168431703   5.192188998e-05   3.728406569e-09  
2871741600        2.046944319e-06   1.18819924e-05    5.052746197e-05   0.0001598544756   0.000107133163    0.0001173109041   0.0001123819076   9.812101161e-08   0.0001710773176   2.586187852e-05   0.0001583003803   0.0001579072745   0.0001149667958   5.310459071e-05   4.200939545e-09  
2903299200        2.077824836e-06   1.200531157e-05   5.08584512e-05    0.0001578578814   0.0001080203828   0.0001147718318   0.0001099449382   1.059192381e-07   0.0001679645996   2.638235157e-05   0.0001572665722   0.0001568630181   0.0001132070391   6.006302381e-05   4.790442157e-09  
