# Probe 0 (605.29 4801.18 50)
# Probe 1 (800.16 4503.7 50)
# Probe 2 (897.8 4127.91 50)
# Probe 3 (729.96 4205.34 50)
# Probe 4 (718.8 3820.61 50)
# Probe 5 (512.67 4464.77 50)
# Probe 6 (519.65 4486.37 50)
# Probe 7 (1064.67 4397.45 50)
# Probe 8 (582.65 4268.11 50)
# Probe 9 (501.34 3840.54 50)
# Probe 10 (660.39 4022.16 50)
# Probe 11 (658.6 4022.78 50)
# Probe 12 (510.69 4273.08 50)
# Probe 13 (730 3650 50)
# Probe 14 (1450 3650 50)
# Time            0                 1                 2                 3                 4                 5                 6                 7                 8                 9                 10                11                12                13                14               
0                 86.20528757       84.63274386       82.1587286        83.03104028       80.35459214       85.13009558       85.23183163       83.37468277       83.7829216        80.72365339       82.0453239        82.06021872       84.01895549       77.92879828       77.03304017      
31557600          86.71731874       85.14476396       82.67076255       83.54307197       80.86664912       85.64211505       85.74385621       83.88670335       84.29496285       81.23568991       82.55735014       82.57224759       84.53099081       78.44086528       77.5450705       
63115200          87.00870679       85.42985557       82.92571678       83.81873622       81.13578455       85.93159598       86.03350786       84.15386993       84.57970002       81.52005943       82.83347459       82.84854302       84.81795782       78.71068609       77.71584357      
94672800          87.46935154       85.87915392       83.36107177       84.26014416       81.5681688        86.38697504       86.48928881       84.59437679       85.0275371        81.96245811       83.27282598       83.28800218       85.26847416       79.13601683       78.13549573      
126230400         87.19190702       85.59063402       83.04039401       83.9593473        81.25498323       86.1051657        86.20785231       84.28598832       84.73763824       81.66639822       82.9705628        82.98594306       84.98171711       78.81705694       77.74716886      
157788000         87.35586788       85.7380612        83.16332303       84.09369346       81.37248201       86.26126746       86.36460535       84.41820797       84.88199766       81.7978769        83.10054928       83.11610628       85.1298509        78.92208152       77.83950885      
189345600         86.88161281       85.2586731        82.69417518       83.61382511       80.88679066       85.7833345        85.88698606       83.94429509       84.40042087       81.30566707       82.61693218       82.63244892       84.64855342       78.42728614       77.43299867      
220903200         86.57802006       84.96389716       82.4318834        83.32963623       80.60556619       85.48176428       85.58531198       83.67048237       84.10429378       81.00000915       82.32973942       82.34504239       84.34890619       78.13897412       77.21601274      
252460800         86.5222938        84.91577541       82.39429395       83.28607269       80.5638123        85.42891706       85.53230723       83.62983671       84.05558904       80.94808418       82.28530941       82.30053016       84.29808436       78.09655483       77.18274738      
284018400         86.36091801       84.75722432       82.23889404       83.12893373       80.40804259       85.26850173       85.37183747       83.473596         83.89674952       80.78944983       82.12816127       82.14335462       84.13848886       77.94211828       77.02813543      
315576000         86.1692717        84.56849825       82.05370006       82.94204588       80.22465412       85.0779126        85.18116584       83.28706857       83.70815185       80.60411575       81.9421267        81.95728924       83.94915912       77.76286935       76.84626454      
347133600         86.03990414       84.44104986       81.92917294       82.81645513       80.10318345       84.9495759        85.05272926       83.16091533       83.58150297       80.48215069       81.81790847       81.83304865       83.82211843       77.64623675       76.72690632      
378691200         85.6678565        84.07050484       81.56129153       82.44774511       79.73849756       84.57857821       84.68162615       82.79133215       83.21200411       80.11738816       81.45064535       81.46576716       83.45236936       77.28618369       76.36465504      
410248800         85.7915595        84.19632386       81.69116978       82.57646094       79.87323803       84.70400397       84.80687892       82.91848087       83.33965834       80.25218133       81.58161561       81.59671158       83.5797271        77.42751985       76.50352301      
441806400         86.01681567       84.42383884       81.9231163        82.80717357       80.11014294       84.93123372       85.03391276       83.14743039       83.56927721       80.48906855       81.81470411       81.82977351       83.80906088       77.67077212       76.74525589      
473364000         86.67382857       85.08363835       82.58820968       83.47078038       80.78036063       85.59071916       85.69315831       83.80904228       84.23159236       81.15898738       82.48092165       82.49596132       84.47104298       78.34689071       77.42133563      
504921600         86.83443174       85.24441591       82.74356908       83.63128209       80.94319708       85.75257383       85.85489324       83.96562802       84.39397395       81.32565568       82.6432413        82.65831212       84.63385808       78.51342494       77.56939293      
536479200         87.35526015       85.76415444       83.26313896       84.15145104       81.46375998       86.2737526        86.37601475       84.48456791       84.91494278       81.84795214       83.1641049        83.17918637       85.15532673       79.03248457       78.0756653       
568036800         87.52525591       85.92464286       83.38950628       84.30008663       81.60029872       86.44079379       86.5433101        84.62501786       85.07486993       82.00379357       83.31188838       83.32718671       85.31845037       79.16289379       78.11358732      
599594400         87.28133951       85.66711346       83.10722441       84.03039767       81.31609992       86.19062894       86.29365451       84.35246727       84.81491607       81.73453596       83.03906574       83.05454107       85.06192343       78.86881649       77.80559478      
631152000         86.83343751       85.21685452       82.67590553       83.58240746       80.86391298       85.73975468       85.84303332       83.91343267       84.36222521       81.27072073       82.587055         82.60243736       84.60864479       78.40677536       77.45243034      
662709600         86.47403243       84.86341687       82.33851277       83.23461631       80.51767095       85.38180299       85.48500307       83.57125107       84.00780276       80.91087394       82.23765064       82.25291858       84.25206286       78.05663437       77.12923931      
694267200         86.44396785       84.83935571       82.32179721       83.21351485       80.49703578       85.35370669       85.45681313       83.5530774        83.9827399        80.88216571       82.21546522       82.23067229       84.22530125       78.0346593        77.1151547       
725824800         86.26452402       84.66315029       82.14932103       83.0386468        80.32315483       85.17503117       85.27810366       83.38014004       83.80573255       80.70472038       82.04024694       82.05542079       84.04736323       77.86171091       76.94386872      
757382400         85.93265173       84.33331523       81.82172965       82.70977188       79.99627744       84.84363636       84.94667462       83.05209463       83.47560216       80.37634951       81.71172493       81.72687734       83.71668007       77.53740821       76.61861989      
788940000         85.90526613       84.3082143        81.79992629       82.6865933        79.97779343       84.81721842       84.92016039       83.02877412       83.45109182       80.35719687       81.69001332       81.70513848       83.691659         77.52474476       76.60331213      
820497600         85.58487576       83.98977351       81.48497676       82.37050876       79.66706291       84.49813633       84.60094415       82.71169447       83.13395894       80.04644393       81.37583646       81.39093713       83.37419733       77.22023669       76.29633526      
852055200         85.41400891       83.82065778       81.31922754       82.20376706       79.50535672       84.32866513       84.43133154       82.54374541       82.96632804       79.88482688       81.21096808       81.22604719       83.20632022       77.06412669       76.1383122       
883612800         85.5115077        83.92113303       81.42557533       82.30845263       79.61850495       84.42872736       84.53113709       82.64617802       83.069554         79.99811583       81.31886692       81.33391024       83.3091689        77.18634641       76.25807498      
915170400         86.26073324       84.67305485       82.18279218       83.06418994       80.38141199       85.18035988       85.28253232       83.3998808        83.82401312       80.76098015       82.0773854        82.09239804       84.06330958       77.95637527       77.02699605      
946728000         86.37116366       84.78614976       82.3009266        83.18087608       80.50422088       85.29313606       85.39508124       83.51478609       83.93945764       80.8833959        82.19647253       82.21145675       84.17843187       78.08470541       77.15591582      
978285600         86.82505644       85.24330201       82.76326826       83.64186474       80.97030655       85.7497702        85.85146013       83.97409885       84.39904275       81.34830098       82.65960685       82.67456319       84.63761525       78.5531964        77.6268323       
1009843200        86.95932849       85.37901928       82.89990796       83.77872298       81.1074988        85.88545289       85.98702224       84.11014772       84.53578477       81.48537535       82.79695327       82.81191017       84.77430417       78.68868389       77.76459632      
1041400800        86.78311925       85.20051941       82.71059439       83.59619731       80.91968642       85.7087133        85.81034047       83.92547559       84.35696359       81.30374367       82.61378622       82.62881935       84.59645694       78.49674099       77.55481514      
1072958400        86.31735623       84.73487692       82.25097854       83.13105674       80.4513347        85.24199371       85.34371122       83.46465636       83.88982198       80.83019098       82.14652399       82.16152383       84.12890744       78.02161996       77.11006977      
1104516000        86.44778896       84.86747009       82.38538692       83.26336504       80.57963172       85.37219408       85.47397593       83.60065916       84.02038112       80.95425209       82.27662684       82.29160851       84.25866911       78.1442221        77.23971847      
1136073600        86.19084181       84.61091722       82.12783337       83.00541341       80.31900759       85.11436312       85.21624641       83.34506136       83.76203596       80.69243668       82.01725659       82.03223793       84.00002839       77.88164189       76.97863941      
1167631200        86.12642792       84.54643304       82.06232089       82.93971317       80.25227087       85.0489324        85.15091095       83.2810473        83.6961283        80.6252703        81.95082139       81.96580154       83.93393821       77.81509062       76.91166294      
1199188800        85.92849478       84.34853008       81.86425223       82.74142431       80.05465758       84.85045669       84.95247751       83.08345436       83.49761907       80.4276566        81.75256517       81.76754066       83.73530409       77.61930303       76.71456689      
1230746400        85.52037425       83.94060988       81.456786         82.33372599       79.64831329       84.44227161       84.54429013       82.67578135       83.08970305       80.02143048       81.34527243       81.3602421        83.32730669       77.21508245       76.30908119      
1262304000        85.5586157        83.97977837       81.49814438       82.37441512       79.69332453       84.48117604       84.58311584       82.71561417       83.12979706       80.06684742       81.38749461       81.40244754       83.36724092       77.26566081       76.35687459      
1293861600        85.6006024        84.02285057       81.54368962       82.41930006       79.74232816       84.52416799       84.62600186       82.75936555       83.17410792       80.11614762       81.43393312       81.44887028       83.41142028       77.31940005       76.40868265      
1325419200        85.5014939        83.92535972       81.4497615        82.32444144       79.6528974        84.42662532       84.52829973       82.66287524       83.07844836       80.02697391       81.34116262       81.35607838       83.31558208       77.23586161       76.32331607      
1356976800        86.33857964       84.76416288       82.29216109       83.16589614       80.49928252       85.26537447       85.36688388       83.50275932       83.91909524       80.87338664       82.18456832       82.19946386       84.15604716       78.08698539       77.17367806      
1388534400        86.41445424       84.84217977       82.37428992       83.24687884       80.58490535       85.34323479       85.44455407       83.58219199       83.99910573       80.95852123       82.267429         82.28230254       84.23581471       78.17620468       77.26426149      
1420092000        86.80898207       85.2382143        82.7705849        83.64429337       80.9835918        85.73907457       85.84027744       83.97842577       84.39618226       81.35651685       82.665586         82.68045455       84.63273445       78.57401082       77.6517194       
1451649600        87.03526471       85.46347448       82.9906692        83.86779971       81.20386664       85.9652731        86.06649144       84.20091055       84.62139026       81.57895384       82.88854711       82.90345099       84.85841422       78.79017758       77.85731262      
1483207200        86.77537164       85.1996755        82.71787334       83.59914451       80.92783797       85.70363204       85.80501313       83.9317305        84.3564437        81.30893134       82.61822732       82.63320734       84.59461197       78.50809971       77.5810902       
1514764800        86.18768682       84.61187286       82.13518276       83.01133255       80.33586867       85.11454115       85.2160606        83.34852074       83.76658184       80.71105728       82.0277883        82.04273548       84.00425676       77.90863611       77.00794794      
1546322400        85.92264752       84.34800258       81.87169444       82.74612178       80.06548671       84.84850708       84.95016481       83.08723415       83.5000437        80.43667798       81.75984086       81.77477674       83.73704091       77.63229358       76.73835912      
1577880000        85.59153255       84.0167848        81.5393912        82.41369104       79.73140264       84.51651489       84.61826474       82.7563624        83.16746571       80.10205781       81.42645421       81.4413907        83.40430243       77.29772657       76.40319763      
1609437600        85.11094577       83.53595455       81.05795164       81.93214917       79.2506486        84.03511017       84.13692871       82.27564525       82.6857859        79.62158385       80.94488805       80.95982045       82.92251442       76.81993341       75.92194421      
1640995200        85.20420251       83.62948386       81.15250457       82.02638785       79.34815497       84.12847333       84.23026551       82.36937578       82.77972804       79.71975622       81.04022133       81.05514291       83.01638144       76.92241755       76.02051807      
1672552800        84.99691652       83.42326824       80.94947072       81.82260511       79.15112351       83.92232446       84.02398383       82.16371601       82.57528007       79.5237012        80.83893622       80.85383526       82.81181513       76.73413805       75.82676093      
1704110400        84.75793028       83.18582191       80.71596072       81.58818602       78.92358416       83.68504251       83.78652182       81.92707346       82.34007712       79.29690257       80.60717271       80.62204758       82.57647691       76.51447139       75.60327586      
1735668000        84.94166718       83.3719073        80.90750812       81.77844739       79.12222444       83.87132769       83.97254873       82.11444019       82.52923931       79.49614172       80.80075043       80.8155944        82.76543753       76.72191543       75.80746768      
1767225600        84.8288438        83.2624674        80.8053434        81.67450898       79.02837453       83.7620561        83.8629278        82.00695037       82.42379273       79.40264482       80.70084789       80.71565236       82.65969071       76.63804574       75.72126732      
1798783200        85.9016526        84.33838792       81.88752434       82.75509529       80.11679186       84.83799052       84.93856066       83.08477938       83.50302481       80.49096761       81.78461946       81.79939115       83.73863005       77.73339903       76.81633237      
1830340800        85.85437013       84.2943809        81.84955875       82.71548099       80.08361594       84.7938119        84.89409056       83.04289979       83.46202058       80.45716859       81.74766361       81.76240467       83.69728958       77.70495486       76.79003574      
1861898400        86.16353643       84.60676391       82.16698043       83.0313693        80.40269947       85.1057355        85.20576862       83.35754928       83.77661314       80.77473226       82.06504457       82.07976325       84.0115137        78.02371759       77.11487865      
1893456000        86.3446891        84.79003459       82.35243906       83.21591541       80.58629312       85.28830934       85.38823423       83.54252924       83.96038223       80.95669615       82.24935178       82.26406319       84.19498764       78.20352171       77.30135443      
1925013600        86.08704461       84.5335474        82.09590931       82.95894231       80.32555254       85.03090828       85.1308394        83.28730006       83.70302638       80.69428362       81.990939         82.00565395       83.93739502       77.93671485       77.04142081      
1956571200        85.64476872       84.0914872        81.65175287       82.51477271       79.87550682       84.58771913       84.68776503       82.84605808       83.2588344        80.2427843        81.54436877       81.55909598       83.49302342       77.47948548       76.5902992       
1988128800        85.43524059       83.88144829       81.43913599       82.30239549       79.65870083       84.37679988       84.47699046       82.63625715       83.04664794       80.02541295       81.33005206       81.34479101       83.28075524       77.25868772       76.37178266      
2019686400        85.33115589       83.77636172       81.33122182       82.19481409       79.54824503       84.27088412       84.37124553       82.53110298       82.93933506       79.91506417       81.22100171       81.23574978       83.17340275       77.14733751       76.25963827      
2051244000        85.15465999       83.59937737       81.15332787       82.01701828       79.37037379       84.09361427       84.19403974       82.35402443       82.76161751       79.73748739       81.0429978        81.05774671       82.99567659       76.97070035       76.08145035      
2082801600        84.99548422       83.43993307       80.99385814       81.85745355       79.21267981       83.93395808       84.03441105       82.19457025       82.60197047       79.58038254       80.88396146       80.89870504       82.83600331       76.81659038       75.92442963      
2114359200        84.75827989       83.20319728       80.75889772       81.62203887       78.98157725       83.6972117        83.79760006       81.95813336       82.36616547       79.34998229       80.6501067        80.6648361        82.60013015       76.59122674       75.69559332      
2145916800        84.62671485       83.07277056       80.63145648       81.4938879        78.8587369        83.56688349       83.66713874       81.82832809       82.23740862       79.2277262        80.52399359       80.53870438       82.4712668        76.47454879       75.57596627      
2177474400        84.81809135       83.26564938       80.82787067       81.68946126       79.05987747       83.75987885       83.85996885       82.02204231       82.43226442       79.42931244       80.72174727       80.7364376        82.66599001       76.681747         75.78082572      
2209032000        84.60356601       83.05325036       80.62017133       81.48061344       78.85783779       83.54758941       83.64745681       81.8108765        82.22244216       79.22760804       80.51559553       80.53025964       82.45597653       76.48669665       75.58384151      
2240589600        85.61337041       84.0653769        81.6371089        82.49633397       79.87979293       84.55974863       84.65938631       82.82442505       83.23712985       80.24954709       81.53383854       81.54847703       83.4704458        77.51433616       76.61095281      
2272147200        85.59988383       84.05407489       81.62993933       82.48804516       79.8760332        84.54835806       84.64779763       82.8145309        83.2279004        80.24537658       81.52741228       81.54202958       83.46099271       77.51398387       76.61198624      
2303704800        86.00803191       84.46457868       82.04413265       82.90111529       80.29112127       84.95853753       85.05779691       83.226694         83.64002235       80.65915344       81.94148592       81.95608741       83.87284252       77.92804507       77.03132668      
2335262400        86.19755011       84.65550532       82.23607941       83.09249831       80.48025836       85.1488794        85.24808608       83.41883017       83.83092555       80.84669324       82.13212391       82.14672431       84.0635296        78.11215643       77.22205881      
2366820000        86.02896559       84.48728124       82.06676735       82.92313335       80.30632602       84.97999971       85.07925941       83.25121042       83.6615121        80.67130026       81.9610277        81.97563725       83.89398918       77.93149228       77.04753702      
2398377600        85.80669486       84.26460463       81.84135086       82.69804554       80.07487141       84.75656068       84.85595667       83.0287298        83.43669338       80.43858032       81.73341858       81.74804491       83.66910185       77.69225571       76.81380782      
2429935200        85.83650263       84.29271643       81.86421511       82.72180303       80.09025302       84.78372924       84.8833958        83.0563879        83.46119005       80.45315989       81.75366546       81.76831839       83.69361944       77.69970189       76.82463304      
2461492800        85.65778774       84.11201712       81.67903622       82.53749953       79.90081496       84.60246876       84.70237664       82.87484579       83.27762108       80.26374813       81.5670668        81.58173923       83.5101424        77.50678581       76.63147077      
2493050400        85.35978345       83.81232766       81.37617896       82.23532779       79.59577561       84.30252698       84.40260959       82.57430522       82.97602877       79.95897122       81.26356753       81.27825266       83.20865437       77.20028508       76.32376557      
2524608000        85.26838292       83.71935645       81.2807206        82.14048534       79.49943112       84.20950994       84.30973151       82.4804079        82.88170383       79.86315316       81.16796325       81.1826574        83.11444938       77.10400982       76.2251373       
2556165600        85.16896382       83.61904119       81.17935679       82.03945474       79.39863781       84.10931945       84.20960186       82.37945409       82.78095154       79.76295626       81.06691686       81.08161365       83.0137846        77.00479623       76.12329621      
2587723200        85.13040191       83.57996755       81.1403085        82.00054499       79.36167083       84.07053104       84.17081926       82.33987522       82.74215494       79.72675496       81.02869647       81.04339035       82.97506336       76.97111828       76.08618477      
2619280800        85.41973978       83.86930658       81.43064596       82.29079942       79.65476523       84.36021511       84.46045693       82.62899172       83.03233583       80.02049444       81.32004645       81.3347333        83.26528386       77.26798659       76.3800822       
2650838400        84.95270214       83.40279839       80.96620721       81.82603042       79.19396588       83.89412353       83.99426333       82.16253729       82.5672912        79.56027198       80.85687032       80.87154527       82.80024221       76.81161823       75.92119489      
2682396000        85.99413232       84.44497341       82.0104758        82.86991749       80.24080259       84.93661854       85.03665126       83.20498155       83.61085226       80.60719335       81.90201992       81.91668467       83.84377394       77.86098502       76.96988112      
2713953600        85.91843341       84.37007194       81.93732752       82.79640443       80.16884338       84.86193369       84.96187302       83.13042946       83.53704141       80.53486764       81.82925702       81.84391464       83.76991673       77.78924558       76.89968982      
2745511200        86.27718857       84.72929168       82.29710637       83.15592552       80.52667524       85.22114311       85.32105245       83.49001433       83.896428         80.8916474        82.18830097       82.20296014       84.12925367       78.14295995       77.25896455      
2777068800        86.50568546       84.95774998       82.52449868       83.38349406       80.75060346       85.44940844       85.54935921       83.71853983       84.12413537       81.11459418       82.41455204       82.42922065       84.35693718       78.36152634       77.48084006      
2808626400        86.21157292       84.6627172        82.2260282        83.08570099       80.4455698        85.15391513       85.25402485       83.42315977       83.82686641       80.80825589       82.11395364       82.12864379       84.05968748       78.04758758       77.17221641      
2840184000        85.93672202       84.3861193        81.94474381       82.80550603       80.15806788       84.87697493       84.97730126       83.14561234       83.54755711       80.52030642       81.83085896       81.84557582       83.78050998       77.75257107       76.87968886      
2871741600        85.99709929       84.44442304       81.99844248       82.86028952       80.20702733       84.93504271       85.03559409       83.20278596       83.60324808       80.56934559       81.88321735       81.8979576        83.83636821       77.79675134       76.9239687       
2903299200        85.84678458       84.29170426       81.84124639       82.70421833       80.04676384       84.78226182       84.88304087       83.04865214       83.44812783       80.40967914       81.72528756       81.74004811       83.68146135       77.6343585        76.75929405      
2934856800        85.47538475       83.91810038       81.46435637       82.32827939       79.66901229       84.40887977       84.50982935       82.67358861       83.07299849       80.03283137       81.34846709       81.36324094       83.30655977       77.25688338       76.37816551      
2966414400        85.47551556       83.91707864       81.46210367       82.32650431       79.66750729       84.40818682       84.50919987       82.67166179       83.07163052       80.03208402       81.34673081       81.36150885       83.30533936       77.25695515       76.37512935      
2997972000        85.31540133       83.75623849       81.30103502       82.16572553       79.50836655       84.24781025       84.34883321       82.51007716       82.91109888       79.87381649       81.18656623       81.20134368       83.14493737       77.10069799       76.21529322      
3029529600        85.03359785       83.47435441       81.02034553       81.88502897       79.23120514       83.96651962       84.06747832       82.22775086       82.6303976        79.5976467        80.90727713       80.92204715       82.86432879       76.82819364       75.93866393      
3061087200        85.22553202       83.66683967       81.2150825        82.07947492       79.43012926       84.15956396       84.26040435       82.42021537       82.82459505       79.79740815       81.10353657       81.1182943        83.05855883       77.03237112       76.1392072       
3092644800        84.84494684       83.28735017       80.83878429       81.70262029       79.05872335       83.78059904       83.8812747        82.04106188       82.44727517       79.42676625       80.72888953       80.74363023       82.68121902       76.66694907       75.77059063      
3124202400        85.97379741       84.41729219       81.97157624       82.83486247       80.19515553       84.91090896       85.01143883       83.17147306       83.57905293       80.56346293       81.86287763       81.877604         83.81294987       77.80741044       76.90961457      
3155760000        85.954333         84.39912745       81.95635584       82.81900924       80.18287557       84.89302915       84.99340706       83.15394308       83.56267904       80.55110777       81.84856123       81.86327357       83.79649919       77.79772347       76.900302        