z,theta
132.8755,0.24249159798
132.8805,0.240597875311
132.8855,0.23813106112
132.8905,0.235336620979
132.8955,0.232347495505
132.9005,0.229250231877
132.9055,0.226104821035
132.9105,0.222953842982
132.9155,0.219827690483
132.9205,0.216747935746
132.9255,0.213729655563
132.9305,0.210783102341
132.9355,0.207914933194
132.9405,0.205129126446
132.9455,0.202427670643
132.9505,0.199811085051
132.9555,0.197278813907
132.9605,0.194829525407
132.9655,0.192461338425
132.9705,0.190171994257
132.9755,0.187958986395
132.9805,0.185819658258
132.9855,0.183751276384
132.9905,0.181751084848
132.9955,0.179816345309
133.0005,0.177944366046
133.0055,0.176132522605
133.0105,0.174378272019
133.0155,0.172679162166
133.0205,0.171032837429
133.0255,0.16943704158
133.0305,0.167889618594
133.0355,0.166388511928
133.0405,0.164931762686
133.0455,0.163517506998
133.0505,0.162143972844
133.0555,0.160809476527
133.0605,0.15951241893
133.0655,0.158251281662
133.0705,0.157024623182
133.0755,0.155831074954
133.0805,0.154669337681
133.0855,0.153538177647
133.0905,0.152436423185
133.0955,0.151362961296
133.1005,0.150316734411
133.1055,0.149296737314
133.1105,0.148302014219
133.1155,0.147331656002
133.1205,0.146384797586
133.1255,0.145460615466
133.1305,0.144558325386
133.1355,0.143677180139
133.1405,0.142816467505
133.1455,0.141975508305
133.1505,0.141153654575
133.1555,0.140350287847
133.1605,0.139564817533
133.1655,0.138796679405
133.1705,0.138045334172
133.1755,0.137310266133
133.1805,0.136590981919
133.1855,0.135887009307
133.1905,0.135197896102
133.1955,0.134523209091
133.2005,0.133862533054
133.2055,0.133215469833
133.2105,0.132581637464
133.2155,0.131960669344
133.2205,0.131352213462
133.2255,0.130755931666
133.2305,0.13017149897
133.2355,0.129598602909
133.2405,0.129036942921
133.2455,0.12848622977
133.2505,0.127946184999
133.2555,0.127416540414
133.2605,0.126897037595
133.2655,0.126387427434
133.2705,0.125887469702
133.2755,0.125396932632
133.2805,0.124915592532
133.2855,0.124443233414
133.2905,0.123979646641
133.2955,0.123524630602
133.3005,0.12307799039
133.3055,0.122639537509
133.3105,0.122209089588
133.3155,0.121786470116
133.3205,0.121371508184
133.3255,0.120964038246
133.3305,0.120563899887
133.3355,0.120170937607
133.3405,0.119785000613
133.3455,0.11940594262
133.3505,0.119033621667
133.3555,0.118667899937
133.3605,0.118308643587
133.3655,0.117955722587
133.3705,0.117609010566
133.3755,0.117268384669
133.3805,0.11693372541
133.3855,0.116604916549
133.3905,0.116281844958
133.3955,0.115964400502
133.4005,0.115652475929
133.4055,0.115345966751
133.4105,0.11504477115
133.4155,0.11474878987
133.4205,0.114457926125
133.4255,0.11417208551
133.4305,0.113891175911
133.4355,0.113615107423
133.4405,0.113343792273
133.4455,0.113077144742
133.4505,0.112815081095
133.4555,0.112557519509
133.4605,0.112304380012
133.4655,0.112055584415
133.4705,0.111811056254
133.4755,0.111570720733
133.4805,0.111334504669
133.4855,0.111102336439
133.4905,0.110874145929
133.4955,0.110649864485
133.5005,0.110429424872
133.5055,0.110212761222
133.5105,0.109999808999
133.5155,0.109790504955
133.5205,0.109584787092
133.5255,0.109382594623
133.5305,0.109183867941
133.5355,0.108988548582
133.5405,0.108796579192
133.5455,0.108607903496
133.5505,0.10842246627
133.5555,0.108240213311
133.5605,0.108061091408
133.5655,0.107885048319
133.5705,0.107712032742
133.5755,0.107541994293
133.5805,0.107374883482
133.5855,0.107210651691
133.5905,0.107049251152
133.5955,0.106890634926
133.6005,0.106734756884
133.6055,0.106581571686
133.6105,0.106431034766
133.6155,0.106283102312
133.6205,0.106137731247
133.6255,0.105994879219
133.6305,0.105854504577
133.6355,0.105716566363
133.6405,0.105581024293
133.6455,0.105447838744
133.6505,0.105316970742
133.6555,0.105188381945
133.6605,0.105062034636
133.6655,0.104937891704
133.6705,0.104815916638
133.6755,0.104696073513
133.6805,0.104578326977
133.6855,0.104462642245
133.6905,0.104348985085
133.6955,0.104237321808
133.7005,0.10412761926
133.7055,0.104019844811
133.7105,0.103913966349
133.7155,0.103809952266
133.7205,0.103707771452
133.7255,0.103607393287
133.7305,0.103508787634
133.7355,0.103411924827
133.7405,0.103316775666
133.7455,0.103223311412
133.7505,0.103131503772
133.7555,0.1030413249
133.7605,0.102952747385
133.7655,0.102865744247
133.7705,0.102780288929
133.7755,0.102696355288
133.7805,0.102613917594
133.7855,0.10253295052
133.7905,0.102453429135
133.7955,0.102375328904
133.8005,0.102298625673
133.8055,0.102223295672
133.8105,0.102149315504
133.8155,0.10207666214
133.8205,0.102005312917
133.8255,0.101935245528
133.8305,0.10186643802
133.8355,0.101798868789
133.8405,0.101732516572
133.8455,0.101667360445
133.8505,0.101603379816
133.8555,0.101540554423
133.8605,0.101478864325
133.8655,0.101418289903
133.8705,0.101358811849
133.8755,0.101300411166
133.8805,0.101243069162
133.8855,0.101186767447
133.8905,0.101131487927
133.8955,0.101077212799
133.9005,0.101023924549
133.9055,0.100971605947
133.9105,0.100920240043
133.9155,0.100869810163
133.9205,0.100820299902
133.9255,0.100771693127
133.9305,0.100723973966
133.9355,0.100677126809
133.9405,0.100631136301
133.9455,0.100585987341
133.9505,0.100541665074
133.9555,0.100498154894
133.9605,0.100455442434
133.9655,0.100413513568
133.9705,0.1003723544
133.9755,0.10033195127
133.9805,0.100292290742
133.9855,0.100253359608
133.9905,0.100215144878
133.9955,0.10017763378
134.0005,0.100140813758
134.0055,0.100104672466
134.0105,0.100069197767
134.0155,0.100034377729
134.0205,0.100000200619
134.0255,0.0999666549075
134.0305,0.0999337292568
134.0355,0.0999014125237
134.0405,0.0998696937546
134.0455,0.0998385621826
134.0505,0.0998080072248
134.0555,0.0997780184798
134.0605,0.099748585724
134.0655,0.09971969891
134.0705,0.0996913481628
134.0755,0.0996635237778
134.0805,0.0996362162177
134.0855,0.0996094161104
134.0905,0.0995831142457
134.0955,0.0995573015732
134.1005,0.0995319691999
134.1055,0.0995071083872
134.1105,0.0994827105489
134.1155,0.0994587672484
134.1205,0.0994352701966
134.1255,0.0994122112495
134.1305,0.0993895824055
134.1355,0.0993673758037
134.1405,0.0993455837212
134.1455,0.0993241985707
134.1505,0.099303212899
134.1555,0.0992826193839
134.1605,0.099262410833
134.1655,0.0992425801807
134.1705,0.0992231204868
134.1755,0.0992040249338
134.1805,0.0991852868257
134.1855,0.099166899585
134.1905,0.0991488567515
134.1955,0.0991311519802
134.2005,0.0991137790391
134.2055,0.0990967318074
134.2105,0.0990800042739
134.2155,0.0990635905349
134.2205,0.0990474847925
134.2255,0.0990316813527
134.2305,0.0990161746239
134.2355,0.0990009591147
134.2405,0.0989860294329
134.2455,0.098971380283
134.2505,0.0989570064653
134.2555,0.0989429028738
134.2605,0.0989290644946
134.2655,0.0989154864046
134.2705,0.0989021637698
134.2755,0.0988890918438
134.2805,0.098876265966
134.2855,0.0988636815607
134.2905,0.098851334135
134.2955,0.0988392192779
134.3005,0.0988273326586
134.3055,0.098815670025
134.3105,0.0988042272027
134.3155,0.0987930000934
134.3205,0.0987819846733
134.3255,0.0987711769926
134.3305,0.0987605731733
134.3355,0.0987501694084
134.3405,0.0987399619609
134.3455,0.0987299471619
134.3505,0.09872012141
134.3555,0.0987104811697
134.3605,0.0987010229706
134.3655,0.0986917434058
134.3705,0.0986826391314
134.3755,0.0986737068646
134.3805,0.0986649433834
134.3855,0.0986563455249
134.3905,0.0986479101845
134.3955,0.0986396343152
134.4005,0.0986315149257
134.4055,0.0986235490804
134.4105,0.0986157338976
134.4155,0.098608066549
134.4205,0.0986005442588
134.4255,0.0985931643023
134.4305,0.0985859240052
134.4355,0.0985788207432
134.4405,0.09857185194
134.4455,0.0985650150677
134.4505,0.0985583076449
134.4555,0.0985517272363
134.4605,0.0985452714521
134.4655,0.0985389379466
134.4705,0.0985327244178
134.4755,0.0985266286067
134.4805,0.0985206482961
134.4855,0.0985147813101
134.4905,0.0985090255135
134.4955,0.0985033788107
134.5005,0.0984978391453
134.5055,0.0984924044991
134.5105,0.0984870728916
134.5155,0.0984818423794
134.5205,0.0984767110552
134.5255,0.0984716770474
134.5305,0.0984667385193
134.5355,0.0984618936688
134.5405,0.0984571407271
134.5455,0.0984524779587
134.5505,0.0984479036607
134.5555,0.0984434161617
134.5605,0.098439013822
134.5655,0.0984346950323
134.5705,0.0984304582136
134.5755,0.0984263018166
134.5805,0.0984222243209
134.5855,0.0984182242345
134.5905,0.0984143000936
134.5955,0.0984104504618
134.6005,0.0984066739297
134.6055,0.0984029691143
134.6105,0.0983993346585
134.6155,0.098395769231
134.6205,0.0983922715251
134.6255,0.098388840259
134.6305,0.0983854741748
134.6355,0.0983821720383
134.6405,0.0983789326387
134.6455,0.0983757547877
134.6505,0.0983726373194
134.6555,0.0983695790902
134.6605,0.0983665789776
134.6655,0.0983636358804
134.6705,0.0983607487182
134.6755,0.098357916431
134.6805,0.0983551379785
134.6855,0.0983524123404
134.6905,0.0983497385153
134.6955,0.0983471155209
134.7005,0.0983445423933
134.7055,0.0983420181868
134.7105,0.0983395419737
134.7155,0.0983371128437
134.7205,0.0983347299035
134.7255,0.098332392277
134.7305,0.0983300991044
134.7355,0.0983278495422
134.7405,0.0983256427629
134.7455,0.0983234779546
134.7505,0.0983213543207
134.7555,0.0983192710797
134.7605,0.0983172274648
134.7655,0.0983152227239
134.7705,0.0983132561188
134.7755,0.0983113269256
134.7805,0.0983094344338
134.7855,0.0983075779465
134.7905,0.0983057567799
134.7955,0.0983039702633
134.8005,0.0983022177386
134.8055,0.09830049856
134.8105,0.0982988120942
134.8155,0.0982971577196
134.8205,0.0982955348267
134.8255,0.0982939428173
134.8305,0.0982923811046
134.8355,0.0982908491129
134.8405,0.0982893462774
134.8455,0.098287872044
134.8505,0.0982864258692
134.8555,0.0982850072197
134.8605,0.0982836155723
134.8655,0.0982822504138
134.8705,0.0982809112406
134.8755,0.0982795975587
134.8805,0.0982783088836
134.8855,0.0982770447398
134.8905,0.0982758046608
134.8955,0.0982745881893
134.9005,0.0982733948762
134.9055,0.0982722242811
134.9105,0.0982710759722
134.9155,0.0982699495255
134.9205,0.0982688445253
134.9255,0.0982677605638
134.9305,0.0982666972406
134.9355,0.0982656541635
134.9405,0.0982646309471
134.9455,0.0982636272138
134.9505,0.0982626425929
134.9555,0.0982616767208
134.9605,0.0982607292409
134.9655,0.0982597998033
134.9705,0.0982588880647
134.9755,0.0982579936884
134.9805,0.098257116344
134.9855,0.0982562557075
134.9905,0.0982554114609
134.9955,0.0982545832924
135.0005,0.0982537708961
135.0055,0.0982529739718
135.0105,0.098252192225
135.0155,0.098251425367
135.0205,0.0982506731143
135.0255,0.0982499351891
135.0305,0.0982492113187
135.0355,0.0982485012355
135.0405,0.0982478046771
135.0455,0.0982471213861
135.0505,0.09824645111
135.0555,0.098245793601
135.0605,0.0982451486162
135.0655,0.098244515917
135.0705,0.0982438952698
135.0755,0.0982432864449
135.0805,0.0982426892174
135.0855,0.0982421033665
135.0905,0.0982415286756
135.0955,0.0982409649322
135.1005,0.098240411928
135.1055,0.0982398694584
135.1105,0.0982393373229
135.1155,0.0982388153247
135.1205,0.0982383032709
135.1255,0.098237800972
135.1305,0.0982373082423
135.1355,0.0982368248997
135.1405,0.0982363507654
135.1455,0.098235885664
135.1505,0.0982354294236
135.1555,0.0982349818754
135.1605,0.0982345428539
135.1655,0.0982341121967
135.1705,0.0982336897445
135.1755,0.0982332753412
135.1805,0.0982328688333
135.1855,0.0982324700706
135.1905,0.0982320789056
135.1955,0.0982316951935
135.2005,0.0982313187924
135.2055,0.0982309495631
135.2105,0.098230587369
135.2155,0.0982302320761
135.2205,0.098229883553
135.2255,0.0982295416707
135.2305,0.0982292063027
135.2355,0.098228877325
135.2405,0.0982285546158
135.2455,0.0982282380558
135.2505,0.0982279275279
135.2555,0.0982276229171
135.2605,0.0982273241107
135.2655,0.0982270309982
135.2705,0.098226743471
135.2755,0.098226461423
135.2805,0.0982261847495
135.2855,0.0982259133484
135.2905,0.098225647119
135.2955,0.098225385963
135.3005,0.0982251297837
135.3055,0.0982248784863
135.3105,0.0982246319777
135.3155,0.0982243901668
135.3205,0.098224152964
135.3255,0.0982239202816
135.3305,0.0982236920335
135.3355,0.0982234681351
135.3405,0.0982232485037
135.3455,0.0982230330579
135.3505,0.0982228217179
135.3555,0.0982226144056
135.3605,0.0982224110443
135.3655,0.0982222115586
135.3705,0.0982220158747
135.3755,0.0982218239202
135.3805,0.098221635624
135.3855,0.0982214509164
135.3905,0.0982212697291
135.3955,0.098221091995
135.4005,0.0982209176482
135.4055,0.0982207466243
135.4105,0.0982205788599
135.4155,0.098220414293
135.4205,0.0982202528625
135.4255,0.0982200945088
135.4305,0.0982199391732
135.4355,0.0982197867982
135.4405,0.0982196373274
135.4455,0.0982194907054
135.4505,0.098219346878
135.4555,0.098219205792
135.4605,0.098219067395
135.4655,0.0982189316358
135.4705,0.0982187984642
135.4755,0.0982186678308
135.4805,0.0982185396874
135.4855,0.0982184139864
135.4905,0.0982182906813
135.4955,0.0982181697264
135.5005,0.0982180510769
135.5055,0.098217934689
135.5105,0.0982178205195
135.5155,0.0982177085261
135.5205,0.0982175986674
135.5255,0.0982174909027
135.5305,0.098217385192
135.5355,0.0982172814963
135.5405,0.0982171797771
135.5455,0.0982170799967
135.5505,0.0982169821182
135.5555,0.0982168861054
135.5605,0.0982167919227
135.5655,0.0982166995352
135.5705,0.0982166089086
135.5755,0.0982165200095
135.5805,0.0982164328049
135.5855,0.0982163472625
135.5905,0.0982162633507
135.5955,0.0982161810382
135.6005,0.0982161002947
135.6055,0.0982160210903
135.6105,0.0982159433956
135.6155,0.0982158671818
135.6205,0.0982157924207
135.6255,0.0982157190846
135.6305,0.0982156471463
135.6355,0.0982155765793
135.6405,0.0982155073573
135.6455,0.0982154394547
135.6505,0.0982153728464
135.6555,0.0982153075077
135.6605,0.0982152434144
135.6655,0.0982151805427
135.6705,0.0982151188693
135.6755,0.0982150583715
135.6805,0.0982149990268
135.6855,0.0982149408132
135.6905,0.0982148837091
135.6955,0.0982148276934
135.7005,0.0982147727454
135.7055,0.0982147188447
135.7105,0.0982146659712
135.7155,0.0982146141056
135.7205,0.0982145632284
135.7255,0.0982145133209
135.7305,0.0982144643646
135.7355,0.0982144163414
135.7405,0.0982143692334
135.7455,0.0982143230232
135.7505,0.0982142776937
135.7555,0.0982142332281
135.7605,0.0982141896099
135.7655,0.098214146823
135.7705,0.0982141048515
135.7755,0.0982140636799
135.7805,0.0982140232929
135.7855,0.0982139836755
135.7905,0.0982139448131
135.7955,0.0982139066913
135.8005,0.098213869296
135.8055,0.0982138326133
135.8105,0.0982137966296
135.8155,0.0982137613315
135.8205,0.0982137267061
135.8255,0.0982136927405
135.8305,0.0982136594221
135.8355,0.0982136267386
135.8405,0.0982135946778
135.8455,0.0982135632279
135.8505,0.0982135323772
135.8555,0.0982135021144
135.8605,0.0982134724282
135.8655,0.0982134433075
135.8705,0.0982134147417
135.8755,0.0982133867201
135.8805,0.0982133592324
135.8855,0.0982133322684
135.8905,0.0982133058181
135.8955,0.0982132798716
135.9005,0.0982132544195
135.9055,0.0982132294522
135.9105,0.0982132049606
135.9155,0.0982131809355
135.9205,0.0982131573681
135.9255,0.0982131342496
135.9305,0.0982131115715
135.9355,0.0982130893254
135.9405,0.098213067503
135.9455,0.0982130460963
135.9505,0.0982130250973
135.9555,0.0982130044983
135.9605,0.0982129842916
135.9655,0.0982129644698
135.9705,0.0982129450255
135.9755,0.0982129259515
135.9805,0.0982129072408
135.9855,0.0982128888864
135.9905,0.0982128708816
135.9955,0.0982128532197
136.0005,0.0982128358941
136.0055,0.0982128188984
136.0105,0.0982128022265
136.0155,0.0982127858719
136.0205,0.0982127698289
136.0255,0.0982127540913
136.0305,0.0982127386534
136.0355,0.0982127235094
136.0405,0.0982127086538
136.0455,0.0982126940811
136.0505,0.0982126797859
136.0555,0.0982126657628
136.0605,0.0982126520068
136.0655,0.0982126385126
136.0705,0.0982126252754
136.0755,0.0982126122902
136.0805,0.0982125995522
136.0855,0.0982125870568
136.0905,0.0982125747993
136.0955,0.0982125627751
136.1005,0.0982125509799
136.1055,0.0982125394092
136.1105,0.0982125280588
136.1155,0.0982125169245
136.1205,0.0982125060021
136.1255,0.0982124952878
136.1305,0.0982124847774
136.1355,0.098212474467
136.1405,0.098212464353
136.1455,0.0982124544316
136.1505,0.098212444699
136.1555,0.0982124351517
136.1605,0.0982124257861
136.1655,0.0982124165989
136.1705,0.0982124075866
136.1755,0.0982123987459
136.1805,0.0982123900734
136.1855,0.0982123815661
136.1905,0.0982123732208
136.1955,0.0982123650344
136.2005,0.0982123570038
136.2055,0.0982123491261
136.2105,0.0982123413985
136.2155,0.0982123338179
136.2205,0.0982123263817
136.2255,0.0982123190872
136.2305,0.0982123119315
136.2355,0.0982123049121
136.2405,0.0982122980263
136.2455,0.0982122912717
136.2505,0.0982122846457
136.2555,0.098212278146
136.2605,0.09821227177
136.2655,0.0982122655155
136.2705,0.0982122593801
136.2755,0.0982122533616
136.2805,0.0982122474577
136.2855,0.0982122416663
136.2905,0.0982122359852
136.2955,0.0982122304124
136.3005,0.0982122249458
136.3055,0.0982122195833
136.3105,0.098212214323
136.3155,0.098212209163
136.3205,0.0982122041013
136.3255,0.0982121991361
136.3305,0.0982121942655
136.3355,0.0982121894878
136.3405,0.0982121848012
136.3455,0.0982121802039
136.3505,0.0982121756943
136.3555,0.0982121712707
136.3605,0.0982121669315
136.3655,0.098212162675
136.3705,0.0982121584997
136.3755,0.0982121544041
136.3805,0.0982121503866
136.3855,0.0982121464458
136.3905,0.0982121425801
136.3955,0.0982121387883
136.4005,0.0982121350688
136.4055,0.0982121314203
136.4105,0.0982121278415
136.4155,0.0982121243311
136.4205,0.0982121208876
136.4255,0.09821211751
136.4305,0.0982121141968
136.4355,0.098212110947
136.4405,0.0982121077593
136.4455,0.0982121046324
136.4505,0.0982121015654
136.4555,0.098212098557
136.4605,0.0982120956061
136.4655,0.0982120927116
136.4705,0.0982120898725
136.4755,0.0982120870877
136.4805,0.0982120843562
136.4855,0.0982120816769
136.4905,0.098212079049
136.4955,0.0982120764713
136.5005,0.098212073943
136.5055,0.0982120714631
136.5105,0.0982120690307
136.5155,0.0982120666449
136.5205,0.0982120643048
136.5255,0.0982120620096
136.5305,0.0982120597583
136.5355,0.0982120575502
136.5405,0.0982120553845
136.5455,0.0982120532603
136.5505,0.0982120511769
136.5555,0.0982120491334
136.5605,0.0982120471291
136.5655,0.0982120451633
136.5705,0.0982120432353
136.5755,0.0982120413443
136.5805,0.0982120394896
136.5855,0.0982120376706
136.5905,0.0982120358865
136.5955,0.0982120341367
136.6005,0.0982120324205
136.6055,0.0982120307374
136.6105,0.0982120290866
136.6155,0.0982120274676
136.6205,0.0982120258797
136.6255,0.0982120243224
136.6305,0.0982120227951
136.6355,0.0982120212972
136.6405,0.0982120198281
136.6455,0.0982120183874
136.6505,0.0982120169744
136.6555,0.0982120155886
136.6605,0.0982120142296
136.6655,0.0982120128968
136.6705,0.0982120115896
136.6755,0.0982120103077
136.6805,0.0982120090506
136.6855,0.0982120078177
136.6905,0.0982120066086
136.6955,0.0982120054228
136.7005,0.0982120042599
136.7055,0.0982120031195
136.7105,0.0982120020012
136.7155,0.0982120009044
136.7205,0.0982119998289
136.7255,0.0982119987741
136.7305,0.0982119977397
136.7355,0.0982119967254
136.7405,0.0982119957306
136.7455,0.0982119947551
136.7505,0.0982119937985
136.7555,0.0982119928604
136.7605,0.0982119919404
136.7655,0.0982119910383
136.7705,0.0982119901536
136.7755,0.098211989286
136.7805,0.0982119884352
136.7855,0.098211987601
136.7905,0.0982119867828
136.7955,0.0982119859805
136.8005,0.0982119851938
136.8055,0.0982119844223
136.8105,0.0982119836657
136.8155,0.0982119829238
136.8205,0.0982119821963
136.8255,0.0982119814828
136.8305,0.0982119807832
136.8355,0.0982119800971
136.8405,0.0982119794243
136.8455,0.0982119787646
136.8505,0.0982119781176
136.8555,0.0982119774832
136.8605,0.098211976861
136.8655,0.0982119762509
136.8705,0.0982119756526
136.8755,0.0982119750659
136.8805,0.0982119744905
136.8855,0.0982119739263
136.8905,0.0982119733729
136.8955,0.0982119728303
136.9005,0.0982119722982
136.9055,0.0982119717763
136.9105,0.0982119712646
136.9155,0.0982119707627
136.9205,0.0982119702705
136.9255,0.0982119697878
136.9305,0.0982119693144
136.9355,0.0982119688501
136.9405,0.0982119683948
136.9455,0.0982119679483
136.9505,0.0982119675103
136.9555,0.0982119670808
136.9605,0.0982119666595
136.9655,0.0982119662464
136.9705,0.0982119658411
136.9755,0.0982119654437
136.9805,0.0982119650538
136.9855,0.0982119646715
136.9905,0.0982119642964
136.9955,0.0982119639285
137.0005,0.0982119635677
137.0055,0.0982119632137
137.0105,0.0982119628665
137.0155,0.0982119625259
137.0205,0.0982119621918
137.0255,0.0982119618641
137.0305,0.0982119615426
137.0355,0.0982119612271
137.0405,0.0982119609177
137.0455,0.0982119606141
137.0505,0.0982119603162
137.0555,0.098211960024
137.0605,0.0982119597372
137.0655,0.0982119594559
137.0705,0.0982119591799
137.0755,0.098211958909
137.0805,0.0982119586432
137.0855,0.0982119583824
137.0905,0.0982119581264
137.0955,0.0982119578752
137.1005,0.0982119576287
137.1055,0.0982119573868
137.1105,0.0982119571493
137.1155,0.0982119569163
137.1205,0.0982119566875
137.1255,0.098211956463
137.1305,0.0982119562426
137.1355,0.0982119560262
137.1405,0.0982119558138
137.1455,0.0982119556052
137.1505,0.0982119554005
137.1555,0.0982119551995
137.1605,0.0982119550021
137.1655,0.0982119548083
137.1705,0.098211954618
137.1755,0.0982119544312
137.1805,0.0982119542476
137.1855,0.0982119540674
137.1905,0.0982119538904
137.1955,0.0982119537165
137.2005,0.0982119535457
137.2055,0.0982119533779
137.2105,0.0982119532131
137.2155,0.0982119530512
137.2205,0.0982119528922
137.2255,0.0982119527359
137.2305,0.0982119525823
137.2355,0.0982119524314
137.2405,0.0982119522831
137.2455,0.0982119521374
137.2505,0.0982119519942
137.2555,0.0982119518534
137.2605,0.0982119517151
137.2655,0.0982119515791
137.2705,0.0982119514454
137.2755,0.098211951314
137.2805,0.0982119511847
137.2855,0.0982119510577
137.2905,0.0982119509327
137.2955,0.0982119508099
137.3005,0.0982119506891
137.3055,0.0982119505703
137.3105,0.0982119504534
137.3155,0.0982119503385
137.3205,0.0982119502254
137.3255,0.0982119501142
137.3305,0.0982119500048
137.3355,0.0982119498971
137.3405,0.0982119497912
137.3455,0.098211949687
137.3505,0.0982119495845
137.3555,0.0982119494835
137.3605,0.0982119493842
137.3655,0.0982119492865
137.3705,0.0982119491903
137.3755,0.0982119490956
137.3805,0.0982119490024
137.3855,0.0982119489106
137.3905,0.0982119488202
137.3955,0.0982119487313
137.4005,0.0982119486437
137.4055,0.0982119485575
137.4105,0.0982119484726
137.4155,0.0982119483889
137.4205,0.0982119483066
137.4255,0.0982119482255
137.4305,0.0982119481456
137.4355,0.0982119480669
137.4405,0.0982119479894
137.4455,0.0982119479131
137.4505,0.0982119478378
137.4555,0.0982119477638
137.4605,0.0982119476908
137.4655,0.0982119476189
137.4705,0.098211947548
137.4755,0.0982119474782
137.4805,0.0982119474094
137.4855,0.0982119473416
137.4905,0.0982119472749
137.4955,0.0982119472091
137.5005,0.0982119471442
137.5055,0.0982119470803
137.5105,0.0982119470173
137.5155,0.0982119469553
137.5205,0.0982119468941
137.5255,0.0982119468338
137.5305,0.0982119467744
137.5355,0.0982119467159
137.5405,0.0982119466582
137.5455,0.0982119466013
137.5505,0.0982119465453
137.5555,0.0982119464901
137.5605,0.0982119464357
137.5655,0.098211946382
137.5705,0.0982119463292
137.5755,0.0982119462771
137.5805,0.0982119462258
137.5855,0.0982119461752
137.5905,0.0982119461253
137.5955,0.0982119460762
137.6005,0.0982119460278
137.6055,0.0982119459802
137.6105,0.0982119459332
137.6155,0.0982119458869
137.6205,0.0982119458413
137.6255,0.0982119457964
137.6305,0.0982119457521
137.6355,0.0982119457086
137.6405,0.0982119456657
137.6455,0.0982119456234
137.6505,0.0982119455818
137.6555,0.0982119455408
137.6605,0.0982119455004
137.6655,0.0982119454607
137.6705,0.0982119454216
137.6755,0.0982119453831
137.6805,0.0982119453452
137.6855,0.0982119453079
137.6905,0.0982119452712
137.6955,0.0982119452351
137.7005,0.0982119451996
137.7055,0.0982119451647
137.7105,0.0982119451304
137.7155,0.0982119450966
137.7205,0.0982119450634
137.7255,0.0982119450307
137.7305,0.0982119449987
137.7355,0.0982119449671
137.7405,0.0982119449362
137.7455,0.0982119449057
137.7505,0.0982119448758
137.7555,0.0982119448465
137.7605,0.0982119448177
137.7655,0.0982119447894
137.7705,0.0982119447617
137.7755,0.0982119447345
137.7805,0.0982119447078
137.7855,0.0982119446816
137.7905,0.098211944656
137.7955,0.0982119446308
137.8005,0.0982119446062
137.8055,0.0982119445821
137.8105,0.0982119445585
137.8155,0.0982119445354
137.8205,0.0982119445127
137.8255,0.0982119444906
137.8305,0.098211944469
137.8355,0.0982119444479
137.8405,0.0982119444272
137.8455,0.098211944407
137.8505,0.0982119443874
137.8555,0.0982119443682
137.8605,0.0982119443494
137.8655,0.0982119443312
137.8705,0.0982119443134
137.8755,0.0982119442961
137.8805,0.0982119442792
137.8855,0.0982119442628
137.8905,0.0982119442469
137.8955,0.0982119442314
137.9005,0.0982119442164
137.9055,0.0982119442019
137.9105,0.0982119441878
137.9155,0.0982119441741
137.9205,0.0982119441609
137.9255,0.0982119441481
137.9305,0.0982119441358
137.9355,0.0982119441239
137.9405,0.0982119441124
137.9455,0.0982119441014
137.9505,0.0982119440908
137.9555,0.0982119440806
137.9605,0.0982119440708
137.9655,0.0982119440615
137.9705,0.0982119440526
137.9755,0.098211944044
137.9805,0.0982119440359
137.9855,0.0982119440283
137.9905,0.098211944021
137.9955,0.0982119440141
138.0005,0.0982119440076
138.0055,0.0982119440015
138.0105,0.0982119439958
138.0155,0.0982119439905
138.0205,0.0982119439856
138.0255,0.098211943981
138.0305,0.0982119439769
138.0355,0.0982119439731
138.0405,0.0982119439697
138.0455,0.0982119439666
138.0505,0.098211943964
138.0555,0.0982119439616
138.0605,0.0982119439597
138.0655,0.0982119439581
138.0705,0.0982119439568
138.0755,0.0982119439559
138.0805,0.0982119439554
138.0855,0.0982119439552
138.0905,0.0982119439553
138.0955,0.0982119439557
138.1005,0.0982119439565
138.1055,0.0982119439576
138.1105,0.098211943959
138.1155,0.0982119439608
138.1205,0.0982119439628
138.1255,0.0982119439652
138.1305,0.0982119439679
138.1355,0.0982119439708
138.1405,0.0982119439741
138.1455,0.0982119439777
138.1505,0.0982119439815
138.1555,0.0982119439856
138.1605,0.09821194399
138.1655,0.0982119439947
138.1705,0.0982119439997
138.1755,0.0982119440049
138.1805,0.0982119440103
138.1855,0.0982119440161
138.1905,0.098211944022
138.1955,0.0982119440283
138.2005,0.0982119440347
138.2055,0.0982119440414
138.2105,0.0982119440484
138.2155,0.0982119440555
138.2205,0.0982119440629
138.2255,0.0982119440705
138.2305,0.0982119440783
138.2355,0.0982119440863
138.2405,0.0982119440946
138.2455,0.098211944103
138.2505,0.0982119441116
138.2555,0.0982119441204
138.2605,0.0982119441294
138.2655,0.0982119441385
138.2705,0.0982119441478
138.2755,0.0982119441573
138.2805,0.098211944167
138.2855,0.0982119441768
138.2905,0.0982119441868
138.2955,0.0982119441969
138.3005,0.0982119442071
138.3055,0.0982119442175
138.3105,0.098211944228
138.3155,0.0982119442387
138.3205,0.0982119442494
138.3255,0.0982119442603
138.3305,0.0982119442713
138.3355,0.0982119442823
138.3405,0.0982119442935
138.3455,0.0982119443048
138.3505,0.0982119443161
138.3555,0.0982119443276
138.3605,0.0982119443391
138.3655,0.0982119443507
138.3705,0.0982119443623
138.3755,0.098211944374
138.3805,0.0982119443858
138.3855,0.0982119443976
138.3905,0.0982119444095
138.3955,0.0982119444214
138.4005,0.0982119444333
138.4055,0.0982119444453
138.4105,0.0982119444572
138.4155,0.0982119444692
138.4205,0.0982119444812
138.4255,0.0982119444933
138.4305,0.0982119445053
138.4355,0.0982119445173
138.4405,0.0982119445293
138.4455,0.0982119445413
138.4505,0.0982119445532
138.4555,0.0982119445652
138.4605,0.0982119445771
138.4655,0.098211944589
138.4705,0.0982119446008
138.4755,0.0982119446126
138.4805,0.0982119446243
138.4855,0.098211944636
138.4905,0.0982119446477
138.4955,0.0982119446592
138.5005,0.0982119446707
138.5055,0.0982119446821
138.5105,0.0982119446935
138.5155,0.0982119447047
138.5205,0.0982119447159
138.5255,0.098211944727
138.5305,0.0982119447379
138.5355,0.0982119447488
138.5405,0.0982119447596
138.5455,0.0982119447702
138.5505,0.0982119447807
138.5555,0.0982119447912
138.5605,0.0982119448014
138.5655,0.0982119448116
138.5705,0.0982119448216
138.5755,0.0982119448315
138.5805,0.0982119448413
138.5855,0.0982119448509
138.5905,0.0982119448603
138.5955,0.0982119448696
138.6005,0.0982119448787
138.6055,0.0982119448877
138.6105,0.0982119448965
138.6155,0.0982119449052
138.6205,0.0982119449136
138.6255,0.0982119449219
138.6305,0.09821194493
138.6355,0.098211944938
138.6405,0.0982119449457
138.6455,0.0982119449533
138.6505,0.0982119449606
138.6555,0.0982119449678
138.6605,0.0982119449748
138.6655,0.0982119449815
138.6705,0.0982119449881
138.6755,0.0982119449944
138.6805,0.0982119450006
138.6855,0.0982119450065
138.6905,0.0982119450122
138.6955,0.0982119450177
138.7005,0.098211945023
138.7055,0.098211945028
138.7105,0.0982119450328
138.7155,0.0982119450374
138.7205,0.0982119450418
138.7255,0.0982119450459
138.7305,0.0982119450498
138.7355,0.0982119450534
138.7405,0.0982119450569
138.7455,0.09821194506
138.7505,0.098211945063
138.7555,0.0982119450657
138.7605,0.0982119450681
138.7655,0.0982119450703
138.7705,0.0982119450723
138.7755,0.098211945074
138.7805,0.0982119450754
138.7855,0.0982119450766
138.7905,0.0982119450776
138.7955,0.0982119450783
138.8005,0.0982119450787
138.8055,0.0982119450789
138.8105,0.0982119450789
138.8155,0.0982119450785
138.8205,0.098211945078
138.8255,0.0982119450771
138.8305,0.0982119450761
138.8355,0.0982119450747
138.8405,0.0982119450731
138.8455,0.0982119450712
138.8505,0.0982119450691
138.8555,0.0982119450667
138.8605,0.0982119450641
138.8655,0.0982119450612
138.8705,0.0982119450581
138.8755,0.0982119450547
138.8805,0.098211945051
138.8855,0.0982119450471
138.8905,0.0982119450429
138.8955,0.0982119450385
138.9005,0.0982119450338
138.9055,0.0982119450289
138.9105,0.0982119450237
138.9155,0.0982119450183
138.9205,0.0982119450126
138.9255,0.0982119450067
138.9305,0.0982119450005
138.9355,0.0982119449941
138.9405,0.0982119449875