/*--------------------------------*- C++ -*----------------------------------*\
| =========                 |                                                 |
| \\      /  F ield         | OpenFOAM: The Open Source CFD Toolbox           |
|  \\    /   O peration     | Version:  2406                                  |
|   \\  /    A nd           | Website:  www.openfoam.com                      |
|    \\/     M anipulation  |                                                 |
\*---------------------------------------------------------------------------*/
FoamFile
{
    version     2.0;
    format      ascii;
    arch        "LSB;label=32;scalar=64";
    class       volScalarField;
    location    "159";
    object      h;
}
// * * * * * * * * * * * * * * * * * * * * * * * * * * * * * * * * * * * * * //

dimensions      [0 1 0 0 0 0 0];

internalField   nonuniform List<scalar> 
5009
(
-0.00249982695453
-0.00749913281998
-0.012498149995
-0.0174968592763
-0.0224952200625
-0.0274931820112
-0.0324906873076
-0.0374876713794
-0.0424840631549
-0.0474797851471
-0.0524747534665
-0.0574688777996
-0.0624620613741
-0.0674542009192
-0.0724451866259
-0.0774349021089
-0.0824232243734
-0.0874100237859
-0.0923951640503
-0.0973785021891
-0.10235988853
-0.107339166699
-0.112316173616
-0.117290739501
-0.12226268788
-0.127231835601
-0.132197992853
-0.137160963192
-0.142120543571
-0.147076524378
-0.152028689475
-0.156976816252
-0.161920675672
-0.166860032337
-0.171794644551
-0.176724264391
-0.181648637783
-0.186567504583
-0.191480598671
-0.196387648039
-0.201288374896
-0.206182495772
-0.211069721632
-0.215949757992
-0.220822305047
-0.225687057798
-0.230543706191
-0.235391935255
-0.240231425257
-0.245061851852
-0.249882886242
-0.254694195343
-0.259495441958
-0.264286284953
-0.269066379438
-0.273835376956
-0.278592925676
-0.283338670594
-0.288072253733
-0.29279331435
-0.297501489155
-0.302196412523
-0.306877716718
-0.311545032118
-0.316197987448
-0.320836210009
-0.325459325918
-0.330066960349
-0.334658737776
-0.339234282218
-0.343793217487
-0.348335167442
-0.352859756241
-0.357366608592
-0.361855350016
-0.366325607094
-0.370777007734
-0.375209181424
-0.37962175949
-0.384014375356
-0.388386664799
-0.392738266207
-0.397068820834
-0.401377973052
-0.405665370604
-0.409930664853
-0.414173511028
-0.41839356847
-0.422590500868
-0.426763976503
-0.430913668474
-0.435039254932
-0.439140419301
-0.443216850501
-0.447268243158
-0.451294297819
-0.455294721148
-0.45926922613
-0.46321753226
-0.467139365726
-0.471034459589
-0.474902553953
-0.478743396131
-0.4825567408
-0.48634235015
-0.490099994027
-0.493829450064
-0.497530503811
-0.501202948849
-0.504846586901
-0.508461227932
-0.512046690243
-0.515602800554
-0.519129394082
-0.522626314606
-0.526093414525
-0.529530554912
-0.532937605551
-0.536314444972
-0.539660960478
-0.542977048158
-0.546262612893
-0.549517568362
-0.552741837027
-0.555935350121
-0.55909804762
-0.562229878211
-0.565330799257
-0.568400776741
-0.571439785217
-0.574447807748
-0.577424835835
-0.58037086934
-0.583285916409
-0.586169993378
-0.589023124681
-0.591845342751
-0.594636687908
-0.597397208255
-0.600126959555
-0.602826005113
-0.605494415647
-0.608132269159
-0.610739650799
-0.613316652727
-0.615863373968
-0.618379920271
-0.620866403952
-0.62332294375
-0.625749664665
-0.628146697807
-0.630514180233
-0.632852254785
-0.63516106993
-0.637440779593
-0.639691542993
-0.641913524475
-0.644106893343
-0.646271823692
-0.648408494241
-0.650517088162
-0.652597792913
-0.65465080007
-0.65667630516
-0.658674507492
-0.660645609992
-0.662589819038
-0.664507344295
-0.666398398553
-0.668263197564
-0.670101959885
-0.671914906718
-0.673702261754
-0.675464251016
-0.677201102714
-0.678913047088
-0.680600316261
-0.682263144098
-0.683901766058
-0.685516419058
-0.68710734133
-0.688674772292
-0.690218952408
-0.691740123066
-0.693238526445
-0.694714405396
-0.696168003317
-0.697599564037
-0.699009331698
-0.700397550649
-0.701764465328
-0.703110320162
-0.704435359465
-0.705739827331
-0.707023967542
-0.708288023473
-0.709532237999
-0.710756853411
-0.711962111324
-0.713148252601
-0.714315517269
-0.715464144447
-0.716594372268
-0.717706437811
-0.718800577031
-0.719877024696
-0.720936014321
-0.721977778114
-0.723002546912
-0.724010550131
-0.725002015711
-0.725977170071
-0.726936238056
-0.727879442896
-0.728807006164
-0.729719147733
-0.730616085744
-0.731498036561
-0.73236521475
-0.733217833036
-0.734056102281
-0.734880231457
-0.735690427615
-0.736486895869
-0.737269839368
-0.738039459282
-0.738795954781
-0.739539523019
-0.740270359119
-0.740988656163
-0.741694605177
-0.742388395123
-0.743070212892
-0.743740243293
-0.744398669051
-0.745045670799
-0.745681427081
-0.746306114343
-0.746919906936
-0.747522977116
-0.748115495046
-0.748697628797
-0.749269544352
-0.749831405612
-0.750383374398
-0.750925610461
-0.751458271487
-0.751981513104
-0.752495488895
-0.7530003504
-0.753496247134
-0.753983326591
-0.75446173426
-0.754931613636
-0.75539310623
-0.755846351584
-0.756291487284
-0.756728648977
-0.757157970379
-0.757579583295
-0.757993617634
-0.758400201421
-0.758799460818
-0.759191520134
-0.75957650185
-0.759954526626
-0.760325713327
-0.760690179034
-0.761048039065
-0.761399406991
-0.761744394655
-0.762083112191
-0.762415668037
-0.76274216896
-0.763062720072
-0.763377424845
-0.763686385135
-0.763989701197
-0.764287471706
-0.764579793773
-0.764866762965
-0.765148473327
-0.765425017395
-0.765696486217
-0.765962969374
-0.766224554996
-0.766481329782
-0.766733379017
-0.766980786593
-0.767223635024
-0.767462005468
-0.767695977742
-0.767925630345
-0.768151040469
-0.768372284023
-0.768589435649
-0.768802568739
-0.769011755453
-0.769217066737
-0.769418572342
-0.769616340835
-0.769810439625
-0.770000934973
-0.770187892014
-0.770371374766
-0.770551446158
-0.770728168036
-0.770901601183
-0.771071805338
-0.771238839208
-0.771402760484
-0.771563625859
-0.771721491041
-0.77187641077
-0.772028438833
-0.772177628077
-0.772324030426
-0.772467696894
-0.772608677601
-0.772747021786
-0.77288277782
-0.773015993223
-0.773146714677
-0.773274988035
-0.773400858342
-0.773524369842
-0.773645565993
-0.773764489481
-0.773881182233
-0.773995685425
-0.774108039501
-0.77421828418
-0.774326458471
-0.774432600683
-0.774536748439
-0.774638938684
-0.774739207701
-0.774837591116
-0.774934123917
-0.775028840457
-0.77512177447
-0.775212959081
-0.775302426812
-0.775390209598
-0.775476338796
-0.77556084519
-0.775643759006
-0.775725109923
-0.775804927074
-0.775883239067
-0.775960073983
-0.776035459394
-0.776109422365
-0.77618198947
-0.776253186794
-0.776323039944
-0.776391574058
-0.776458813815
-0.776524783437
-0.776589506704
-0.776653006959
-0.776715307113
-0.776776429657
-0.776836396668
-0.776895229815
-0.776952950367
-0.777009579202
-0.777065136811
-0.777119643307
-0.777173118431
-0.777225581557
-0.777277051704
-0.777327547534
-0.777377087368
-0.777425689184
-0.777473370627
-0.777520149015
-0.777566041344
-0.777611064294
-0.777655234235
-0.777698567233
-0.777741079055
-0.777782785174
-0.777823700774
-0.777863840758
-0.777903219749
-0.777941852098
-0.777979751891
-0.778016932946
-0.778053408827
-0.778089192842
-0.778124298052
-0.778158737274
-0.778192523084
-0.778225667823
-0.778258183602
-0.778290082303
-0.778321375588
-0.7783520749
-0.778382191466
-0.778411736304
-0.778440720225
-0.778469153836
-0.778497047548
-0.778524411572
-0.778551255932
-0.778577590461
-0.778603424807
-0.778628768439
-0.778653630645
-0.77867802054
-0.778701947069
-0.778725419005
-0.778748444959
-0.77877103338
-0.778793192555
-0.778814930619
-0.778836255549
-0.778857175177
-0.778877697182
-0.778897829104
-0.778917578335
-0.778936952133
-0.778955957614
-0.778974601765
-0.778992891437
-0.779010833353
-0.779028434109
-0.779045700179
-0.77906263791
-0.779079253533
-0.77909555316
-0.779111542787
-0.779127228297
-0.779142615463
-0.779157709947
-0.779172517305
-0.779187042989
-0.779201292345
-0.779215270621
-0.779228982963
-0.779242434422
-0.779255629952
-0.779268574414
-0.779281272576
-0.779293729117
-0.779305948626
-0.779317935607
-0.779329694477
-0.77934122957
-0.779352545138
-0.779363645352
-0.779374534305
-0.779385216011
-0.779395694409
-0.779405973363
-0.779416056664
-0.779425948031
-0.779435651112
-0.779445169486
-0.779454506665
-0.779463666094
-0.779472651152
-0.779481465155
-0.779490111354
-0.779498592941
-0.779506913046
-0.77951507474
-0.779523081035
-0.779530934887
-0.779538639195
-0.779546196804
-0.779553610503
-0.779560883031
-0.779568017072
-0.77957501526
-0.779581880181
-0.779588614369
-0.779595220312
-0.779601700449
-0.779608057175
-0.779614292836
-0.779620409738
-0.779626410139
-0.779632296256
-0.779638070264
-0.779643734297
-0.779649290447
-0.779654740767
-0.779660087272
-0.779665331937
-0.779670476701
-0.779675523465
-0.779680474094
-0.779685330419
-0.779690094233
-0.779694767299
-0.779699351343
-0.77970384806
-0.779708259114
-0.779712586133
-0.779716830719
-0.77972099444
-0.779725078837
-0.779729085419
-0.779733015668
-0.779736871037
-0.779740652953
-0.779744362813
-0.77974800199
-0.779751571829
-0.779755073652
-0.779758508752
-0.779761878402
-0.779765183847
-0.779768426309
-0.779771606989
-0.779774727063
-0.779777787686
-0.779780789988
-0.779783735082
-0.779786624057
-0.779789457982
-0.779792237905
-0.779794964854
-0.77979763984
-0.779800263852
-0.77980283786
-0.779805362817
-0.779807839658
-0.779810269299
-0.77981265264
-0.779814990562
-0.779817283931
-0.779819533595
-0.779821740387
-0.779823905124
-0.779826028607
-0.779828111623
-0.779830154941
-0.779832159319
-0.779834125499
-0.779836054208
-0.77983794616
-0.779839802056
-0.779841622583
-0.779843408414
-0.779845160211
-0.779846878623
-0.779848564285
-0.779850217822
-0.779851839846
-0.779853430957
-0.779854991745
-0.779856522787
-0.779858024651
-0.779859497893
-0.779860943057
-0.779862360679
-0.779863751285
-0.779865115389
-0.779866453495
-0.779867766101
-0.779869053691
-0.779870316742
-0.779871555723
-0.779872771092
-0.779873963299
-0.779875132786
-0.779876279986
-0.779877405323
-0.779878509214
-0.779879592069
-0.779880654288
-0.779881696265
-0.779882718385
-0.779883721027
-0.779884704563
-0.779885669356
-0.779886615765
-0.779887544138
-0.779888454821
-0.779889348151
-0.779890224458
-0.779891084067
-0.779891927296
-0.779892754457
-0.779893565858
-0.779894361798
-0.779895142572
-0.77989590847
-0.779896659774
-0.779897396764
-0.779898119712
-0.779898828886
-0.779899524548
-0.779900206956
-0.779900876363
-0.779901533017
-0.77990217716
-0.779902809032
-0.779903428866
-0.779904036892
-0.779904633336
-0.779905218416
-0.779905792352
-0.779906355354
-0.779906907631
-0.779907449389
-0.779907980827
-0.779908502142
-0.779909013527
-0.779909515171
-0.779910007261
-0.779910489978
-0.779910963501
-0.779911428005
-0.779911883663
-0.779912330642
-0.779912769109
-0.779913199225
-0.779913621149
-0.779914035039
-0.779914441046
-0.779914839322
-0.779915230014
-0.779915613265
-0.779915989219
-0.779916358013
-0.779916719785
-0.779917074668
-0.779917422794
-0.779917764291
-0.779918099286
-0.779918427902
-0.779918750262
-0.779919066484
-0.779919376685
-0.779919680979
-0.779919979481
-0.779920272299
-0.779920559542
-0.779920841317
-0.779921117727
-0.779921388875
-0.77992165486
-0.779921915782
-0.779922171736
-0.779922422817
-0.779922669119
-0.779922910731
-0.779923147744
-0.779923380245
-0.779923608319
-0.779923832051
-0.779924051524
-0.779924266819
-0.779924478015
-0.77992468519
-0.779924888421
-0.779925087783
-0.779925283349
-0.779925475192
-0.779925663382
-0.77992584799
-0.779926029082
-0.779926206727
-0.779926380989
-0.779926551934
-0.779926719623
-0.779926884119
-0.779927045483
-0.779927203774
-0.77992735905
-0.77992751137
-0.779927660788
-0.779927807361
-0.779927951142
-0.779928092185
-0.779928230541
-0.779928366262
-0.779928499397
-0.779928629996
-0.779928758107
-0.779928883777
-0.779929007052
-0.779929127979
-0.779929246601
-0.779929362962
-0.779929477106
-0.779929589074
-0.779929698908
-0.779929806648
-0.779929912334
-0.779930016005
-0.779930117699
-0.779930217454
-0.779930315307
-0.779930411293
-0.779930505448
-0.779930597807
-0.779930688404
-0.779930777272
-0.779930864444
-0.779930949952
-0.779931033829
-0.779931116104
-0.779931196808
-0.779931275971
-0.779931353623
-0.779931429791
-0.779931504504
-0.77993157779
-0.779931649676
-0.779931720187
-0.779931789351
-0.779931857193
-0.779931923738
-0.77993198901
-0.779932053033
-0.779932115832
-0.77993217743
-0.779932237849
-0.779932297111
-0.779932355239
-0.779932412254
-0.779932468178
-0.77993252303
-0.779932576831
-0.779932629602
-0.779932681361
-0.779932732128
-0.779932781922
-0.77993283076
-0.779932878663
-0.779932925646
-0.779932971728
-0.779933016925
-0.779933061255
-0.779933104733
-0.779933147377
-0.779933189201
-0.779933230222
-0.779933270455
-0.779933309914
-0.779933348614
-0.779933386571
-0.779933423797
-0.779933460307
-0.779933496114
-0.779933531232
-0.779933565674
-0.779933599453
-0.779933632582
-0.779933665071
-0.779933696935
-0.779933728185
-0.779933758832
-0.779933788889
-0.779933818365
-0.779933847273
-0.779933875623
-0.779933903426
-0.779933930692
-0.779933957432
-0.779933983655
-0.779934009372
-0.779934034592
-0.779934059324
-0.779934083579
-0.779934107365
-0.77993413069
-0.779934153565
-0.779934175997
-0.779934197996
-0.779934219568
-0.779934240724
-0.779934261469
-0.779934281814
-0.779934301764
-0.779934321328
-0.779934340514
-0.779934359328
-0.779934377777
-0.779934395869
-0.779934413611
-0.779934431009
-0.77993444807
-0.779934464801
-0.779934481207
-0.779934497296
-0.779934513073
-0.779934528544
-0.779934543716
-0.779934558594
-0.779934573184
-0.779934587491
-0.779934601521
-0.77993461528
-0.779934628772
-0.779934642003
-0.779934654978
-0.779934667702
-0.77993468018
-0.779934692416
-0.779934704416
-0.779934716185
-0.779934727725
-0.779934739043
-0.779934750143
-0.779934761028
-0.779934771703
-0.779934782173
-0.77993479244
-0.77993480251
-0.779934812386
-0.779934822072
-0.779934831572
-0.779934840889
-0.779934850028
-0.779934858991
-0.779934867782
-0.779934876405
-0.779934884862
-0.779934893158
-0.779934901296
-0.779934909277
-0.779934917107
-0.779934924788
-0.779934932322
-0.779934939713
-0.779934946964
-0.779934954077
-0.779934961055
-0.779934967902
-0.779934974619
-0.779934981209
-0.779934987675
-0.779934994019
-0.779935000244
-0.779935006353
-0.779935012347
-0.779935018228
-0.779935024
-0.779935029665
-0.779935035224
-0.77993504068
-0.779935046034
-0.77993505129
-0.779935056449
-0.779935061512
-0.779935066483
-0.779935071362
-0.779935076152
-0.779935080855
-0.779935085472
-0.779935090005
-0.779935094455
-0.779935098826
-0.779935103117
-0.779935107331
-0.77993511147
-0.779935115534
-0.779935119526
-0.779935123447
-0.779935127299
-0.779935131082
-0.779935134798
-0.779935138449
-0.779935142036
-0.779935145561
-0.779935149024
-0.779935152427
-0.77993515577
-0.779935159057
-0.779935162286
-0.779935165461
-0.779935168581
-0.779935171648
-0.779935174663
-0.779935177627
-0.779935180541
-0.779935183406
-0.779935186223
-0.779935188994
-0.779935191718
-0.779935194397
-0.779935197032
-0.779935199624
-0.779935202174
-0.779935204682
-0.779935207149
-0.779935209577
-0.779935211965
-0.779935214315
-0.779935216628
-0.779935218904
-0.779935221143
-0.779935223347
-0.779935225517
-0.779935227653
-0.779935229755
-0.779935231824
-0.779935233862
-0.779935235868
-0.779935237843
-0.779935239787
-0.779935241702
-0.779935243588
-0.779935245445
-0.779935247274
-0.779935249076
-0.77993525085
-0.779935252598
-0.77993525432
-0.779935256015
-0.779935257686
-0.779935259332
-0.779935260954
-0.779935262552
-0.779935264126
-0.779935265677
-0.779935267205
-0.779935268711
-0.779935270195
-0.779935271658
-0.779935273099
-0.779935274519
-0.779935275918
-0.779935277298
-0.779935278657
-0.779935279996
-0.779935281316
-0.779935282617
-0.7799352839
-0.779935285163
-0.779935286409
-0.779935287636
-0.779935288845
-0.779935290037
-0.779935291212
-0.779935292369
-0.77993529351
-0.779935294634
-0.779935295741
-0.779935296833
-0.779935297908
-0.779935298967
-0.779935300011
-0.779935301039
-0.779935302052
-0.77993530305
-0.779935304032
-0.779935305
-0.779935305953
-0.779935306892
-0.779935307816
-0.779935308726
-0.779935309622
-0.779935310504
-0.779935311372
-0.779935312227
-0.779935313067
-0.779935313895
-0.779935314709
-0.779935315509
-0.779935316297
-0.779935317072
-0.779935317833
-0.779935318582
-0.779935319318
-0.779935320042
-0.779935320752
-0.779935321451
-0.779935322137
-0.779935322811
-0.779935323472
-0.779935324122
-0.779935324759
-0.779935325385
-0.779935325999
-0.7799353266
-0.779935327191
-0.779935327769
-0.779935328336
-0.779935328891
-0.779935329435
-0.779935329968
-0.779935330489
-0.779935330999
-0.779935331498
-0.779935331986
-0.779935332462
-0.779935332928
-0.779935333383
-0.779935333827
-0.77993533426
-0.779935334682
-0.779935335094
-0.779935335495
-0.779935335885
-0.779935336265
-0.779935336635
-0.779935336994
-0.779935337343
-0.779935337681
-0.779935338009
-0.779935338328
-0.779935338636
-0.779935338934
-0.779935339222
-0.7799353395
-0.779935339769
-0.779935340027
-0.779935340276
-0.779935340515
-0.779935340745
-0.779935340965
-0.779935341176
-0.779935341377
-0.779935341569
-0.779935341751
-0.779935341925
-0.779935342089
-0.779935342244
-0.779935342391
-0.779935342528
-0.779935342656
-0.779935342776
-0.779935342887
-0.77993534299
-0.779935343083
-0.779935343169
-0.779935343246
-0.779935343314
-0.779935343375
-0.779935343427
-0.779935343471
-0.779935343507
-0.779935343535
-0.779935343555
-0.779935343568
-0.779935343573
-0.77993534357
-0.77993534356
-0.779935343542
-0.779935343518
-0.779935343485
-0.779935343446
-0.7799353434
-0.779935343346
-0.779935343286
-0.779935343219
-0.779935343146
-0.779935343066
-0.779935342979
-0.779935342886
-0.779935342787
-0.779935342681
-0.77993534257
-0.779935342452
-0.779935342329
-0.7799353422
-0.779935342065
-0.779935341925
-0.779935341779
-0.779935341628
-0.779935341471
-0.77993534131
-0.779935341143
-0.779935340972
-0.779935340796
-0.779935340615
-0.77993534043
-0.77993534024
-0.779935340046
-0.779935339847
-0.779935339645
-0.779935339438
-0.779935339228
-0.779935339014
-0.779935338796
-0.779935338575
-0.77993533835
-0.779935338122
-0.779935337891
-0.779935337657
-0.77993533742
-0.77993533718
-0.779935336938
-0.779935336692
-0.779935336445
-0.779935336195
-0.779935335943
-0.779935335689
-0.779935335433
-0.779935335175
-0.779935334915
-0.779935334654
-0.779935334391
-0.779935334127
-0.779935333862
-0.779935333595
-0.779935333328
-0.77993533306
-0.779935332791
-0.779935332521
-0.779935332251
-0.77993533198
-0.77993533171
-0.779935331439
-0.779935331168
-0.779935330897
-0.779935330626
-0.779935330356
-0.779935330086
-0.779935329817
-0.779935329548
-0.77993532928
-0.779935329013
-0.779935328747
-0.779935328482
-0.779935328219
-0.779935327957
-0.779935327696
-0.779935327437
-0.779935327179
-0.779935326924
-0.77993532667
-0.779935326418
-0.779935326169
-0.779935325921
-0.779935325676
-0.779935325433
-0.779935325193
-0.779935324956
-0.779935324721
-0.779935324489
-0.77993532426
-0.779935324034
-0.779935323811
-0.779935323591
-0.779935323374
-0.779935323161
-0.779935322952
-0.779935322746
-0.779935322543
-0.779935322345
-0.77993532215
-0.779935321959
-0.779935321772
-0.779935321589
-0.77993532141
-0.779935321235
-0.779935321065
-0.779935320899
-0.779935320737
-0.77993532058
-0.779935320428
-0.77993532028
-0.779935320137
-0.779935319998
-0.779935319865
-0.779935319736
-0.779935319612
-0.779935319493
-0.77993531938
-0.779935319271
-0.779935319167
-0.779935319069
-0.779935318976
-0.779935318888
-0.779935318806
-0.779935318729
-0.779935318657
-0.779935318591
-0.77993531853
-0.779935318475
-0.779935318425
-0.779935318381
-0.779935318343
-0.77993531831
-0.779935318283
-0.779935318261
-0.779935318245
-0.779935318235
-0.779935318231
-0.779935318233
-0.77993531824
-0.779935318253
-0.779935318272
-0.779935318296
-0.779935318326
-0.779935318363
-0.779935318405
-0.779935318452
-0.779935318506
-0.779935318565
-0.779935318631
-0.779935318702
-0.779935318778
-0.779935318861
-0.779935318949
-0.779935319043
-0.779935319143
-0.779935319248
-0.77993531936
-0.779935319476
-0.779935319599
-0.779935319727
-0.77993531986
-0.779935319999
-0.779935320144
-0.779935320294
-0.77993532045
-0.77993532061
-0.779935320777
-0.779935320948
-0.779935321125
-0.779935321307
-0.779935321495
-0.779935321687
-0.779935321885
-0.779935322087
-0.779935322295
-0.779935322507
-0.779935322725
-0.779935322947
-0.779935323174
-0.779935323405
-0.779935323642
-0.779935323883
-0.779935324128
-0.779935324378
-0.779935324632
-0.77993532489
-0.779935325153
-0.77993532542
-0.779935325691
-0.779935325966
-0.779935326245
-0.779935326528
-0.779935326814
-0.779935327105
-0.779935327398
-0.779935327696
-0.779935327997
-0.779935328301
-0.779935328608
-0.779935328919
-0.779935329233
-0.77993532955
-0.77993532987
-0.779935330192
-0.779935330518
-0.779935330846
-0.779935331176
-0.779935331509
-0.779935331845
-0.779935332183
-0.779935332522
-0.779935332864
-0.779935333208
-0.779935333554
-0.779935333902
-0.779935334251
-0.779935334602
-0.779935334955
-0.779935335309
-0.779935335664
-0.77993533602
-0.779935336377
-0.779935336736
-0.779935337095
-0.779935337455
-0.779935337816
-0.779935338177
-0.779935338539
-0.779935338901
-0.779935339263
-0.779935339625
-0.779935339988
-0.77993534035
-0.779935340712
-0.779935341074
-0.779935341436
-0.779935341797
-0.779935342158
-0.779935342517
-0.779935342876
-0.779935343234
-0.779935343591
-0.779935343947
-0.779935344302
-0.779935344655
-0.779935345007
-0.779935345358
-0.779935345707
-0.779935346054
-0.779935346399
-0.779935346742
-0.779935347083
-0.779935347422
-0.779935347759
-0.779935348094
-0.779935348426
-0.779935348755
-0.779935349082
-0.779935349406
-0.779935349727
-0.779935350046
-0.779935350361
-0.779935350673
-0.779935350982
-0.779935351288
-0.77993535159
-0.779935351889
-0.779935352184
-0.779935352476
-0.779935352764
-0.779935353048
-0.779935353328
-0.779935353604
-0.779935353876
-0.779935354144
-0.779935354407
-0.779935354666
-0.779935354921
-0.779935355171
-0.779935355417
-0.779935355658
-0.779935355894
-0.779935356126
-0.779935356353
-0.779935356575
-0.779935356791
-0.779935357003
-0.77993535721
-0.779935357411
-0.779935357607
-0.779935357798
-0.779935357983
-0.779935358163
-0.779935358337
-0.779935358506
-0.77993535867
-0.779935358827
-0.779935358979
-0.779935359125
-0.779935359265
-0.7799353594
-0.779935359528
-0.779935359651
-0.779935359767
-0.779935359878
-0.779935359982
-0.77993536008
-0.779935360173
-0.779935360259
-0.779935360338
-0.779935360412
-0.779935360479
-0.77993536054
-0.779935360595
-0.779935360643
-0.779935360685
-0.77993536072
-0.779935360749
-0.779935360772
-0.779935360788
-0.779935360798
-0.779935360801
-0.779935360798
-0.779935360788
-0.779935360772
-0.779935360749
-0.77993536072
-0.779935360684
-0.779935360642
-0.779935360593
-0.779935360538
-0.779935360476
-0.779935360408
-0.779935360333
-0.779935360252
-0.779935360164
-0.77993536007
-0.779935359969
-0.779935359862
-0.779935359749
-0.779935359629
-0.779935359503
-0.779935359371
-0.779935359232
-0.779935359087
-0.779935358936
-0.779935358779
-0.779935358615
-0.779935358446
-0.77993535827
-0.779935358088
-0.7799353579
-0.779935357706
-0.779935357506
-0.779935357301
-0.779935357089
-0.779935356872
-0.779935356649
-0.77993535642
-0.779935356185
-0.779935355945
-0.7799353557
-0.779935355449
-0.779935355192
-0.77993535493
-0.779935354663
-0.779935354391
-0.779935354113
-0.77993535383
-0.779935353543
-0.77993535325
-0.779935352952
-0.77993535265
-0.779935352342
-0.77993535203
-0.779935351714
-0.779935351393
-0.779935351067
-0.779935350737
-0.779935350403
-0.779935350064
-0.779935349721
-0.779935349375
-0.779935349024
-0.779935348669
-0.779935348311
-0.779935347948
-0.779935347583
-0.779935347213
-0.77993534684
-0.779935346464
-0.779935346085
-0.779935345702
-0.779935345316
-0.779935344928
-0.779935344536
-0.779935344142
-0.779935343744
-0.779935343345
-0.779935342942
-0.779935342538
-0.779935342131
-0.779935341722
-0.77993534131
-0.779935340897
-0.779935340482
-0.779935340065
-0.779935339646
-0.779935339226
-0.779935338804
-0.779935338381
-0.779935337957
-0.779935337531
-0.779935337104
-0.779935336677
-0.779935336248
-0.779935335819
-0.779935335389
-0.779935334959
-0.779935334528
-0.779935334097
-0.779935333666
-0.779935333234
-0.779935332803
-0.779935332371
-0.77993533194
-0.77993533151
-0.779935331079
-0.77993533065
-0.779935330221
-0.779935329792
-0.779935329365
-0.779935328938
-0.779935328513
-0.779935328089
-0.779935327666
-0.779935327245
-0.779935326825
-0.779935326406
-0.77993532599
-0.779935325575
-0.779935325162
-0.779935324752
-0.779935324343
-0.779935323937
-0.779935323533
-0.779935323132
-0.779935322733
-0.779935322337
-0.779935321943
-0.779935321553
-0.779935321165
-0.779935320781
-0.779935320399
-0.779935320021
-0.779935319647
-0.779935319276
-0.779935318908
-0.779935318544
-0.779935318184
-0.779935317828
-0.779935317475
-0.779935317127
-0.779935316783
-0.779935316443
-0.779935316107
-0.779935315776
-0.779935315449
-0.779935315127
-0.779935314809
-0.779935314496
-0.779935314188
-0.779935313885
-0.779935313587
-0.779935313294
-0.779935313006
-0.779935312724
-0.779935312446
-0.779935312174
-0.779935311908
-0.779935311647
-0.779935311391
-0.779935311141
-0.779935310897
-0.779935310659
-0.779935310427
-0.7799353102
-0.77993530998
-0.779935309765
-0.779935309557
-0.779935309355
-0.779935309159
-0.779935308969
-0.779935308786
-0.779935308609
-0.779935308438
-0.779935308275
-0.779935308117
-0.779935307966
-0.779935307822
-0.779935307685
-0.779935307554
-0.77993530743
-0.779935307313
-0.779935307202
-0.779935307099
-0.779935307002
-0.779935306913
-0.77993530683
-0.779935306755
-0.779935306686
-0.779935306625
-0.77993530657
-0.779935306523
-0.779935306483
-0.77993530645
-0.779935306424
-0.779935306406
-0.779935306394
-0.77993530639
-0.779935306393
-0.779935306404
-0.779935306421
-0.779935306446
-0.779935306478
-0.779935306518
-0.779935306564
-0.779935306618
-0.77993530668
-0.779935306748
-0.779935306824
-0.779935306907
-0.779935306997
-0.779935307095
-0.779935307199
-0.779935307311
-0.779935307431
-0.779935307557
-0.779935307691
-0.779935307831
-0.779935307979
-0.779935308134
-0.779935308296
-0.779935308465
-0.779935308641
-0.779935308824
-0.779935309014
-0.779935309211
-0.779935309415
-0.779935309625
-0.779935309843
-0.779935310067
-0.779935310298
-0.779935310536
-0.77993531078
-0.779935311031
-0.779935311289
-0.779935311553
-0.779935311823
-0.7799353121
-0.779935312384
-0.779935312673
-0.779935312969
-0.779935313271
-0.779935313579
-0.779935313893
-0.779935314214
-0.77993531454
-0.779935314872
-0.77993531521
-0.779935315553
-0.779935315902
-0.779935316257
-0.779935316618
-0.779935316984
-0.779935317355
-0.779935317731
-0.779935318113
-0.7799353185
-0.779935318892
-0.779935319289
-0.779935319691
-0.779935320098
-0.779935320509
-0.779935320925
-0.779935321346
-0.779935321771
-0.779935322201
-0.779935322635
-0.779935323073
-0.779935323515
-0.779935323962
-0.779935324412
-0.779935324866
-0.779935325324
-0.779935325786
-0.779935326251
-0.779935326719
-0.779935327191
-0.779935327666
-0.779935328145
-0.779935328626
-0.77993532911
-0.779935329598
-0.779935330088
-0.77993533058
-0.779935331075
-0.779935331573
-0.779935332073
-0.779935332575
-0.77993533308
-0.779935333586
-0.779935334094
-0.779935334604
-0.779935335116
-0.779935335629
-0.779935336144
-0.77993533666
-0.779935337177
-0.779935337696
-0.779935338215
-0.779935338735
-0.779935339257
-0.779935339778
-0.779935340301
-0.779935340824
-0.779935341347
-0.77993534187
-0.779935342394
-0.779935342918
-0.779935343441
-0.779935343964
-0.779935344487
-0.779935345009
-0.779935345531
-0.779935346052
-0.779935346573
-0.779935347092
-0.779935347611
-0.779935348128
-0.779935348644
-0.779935349159
-0.779935349672
-0.779935350183
-0.779935350693
-0.779935351201
-0.779935351707
-0.779935352212
-0.779935352713
-0.779935353213
-0.77993535371
-0.779935354205
-0.779935354697
-0.779935355187
-0.779935355673
-0.779935356157
-0.779935356638
-0.779935357115
-0.77993535759
-0.77993535806
-0.779935358528
-0.779935358992
-0.779935359452
-0.779935359908
-0.779935360361
-0.77993536081
-0.779935361254
-0.779935361694
-0.77993536213
-0.779935362562
-0.779935362989
-0.779935363412
-0.77993536383
-0.779935364243
-0.779935364651
-0.779935365054
-0.779935365453
-0.779935365846
-0.779935366233
-0.779935366616
-0.779935366993
-0.779935367365
-0.779935367731
-0.779935368091
-0.779935368445
-0.779935368794
-0.779935369137
-0.779935369474
-0.779935369804
-0.779935370129
-0.779935370447
-0.779935370759
-0.779935371064
-0.779935371363
-0.779935371656
-0.779935371942
-0.779935372221
-0.779935372493
-0.779935372759
-0.779935373017
-0.779935373269
-0.779935373514
-0.779935373751
-0.779935373982
-0.779935374205
-0.779935374421
-0.77993537463
-0.779935374831
-0.779935375025
-0.779935375211
-0.77993537539
-0.779935375562
-0.779935375725
-0.779935375881
-0.779935376029
-0.77993537617
-0.779935376303
-0.779935376428
-0.779935376545
-0.779935376654
-0.779935376755
-0.779935376848
-0.779935376933
-0.77993537701
-0.779935377079
-0.77993537714
-0.779935377193
-0.779935377238
-0.779935377274
-0.779935377302
-0.779935377323
-0.779935377334
-0.779935377338
-0.779935377333
-0.77993537732
-0.779935377299
-0.77993537727
-0.779935377232
-0.779935377186
-0.779935377131
-0.779935377069
-0.779935376998
-0.779935376918
-0.779935376831
-0.779935376735
-0.779935376631
-0.779935376518
-0.779935376397
-0.779935376268
-0.779935376131
-0.779935375985
-0.779935375832
-0.77993537567
-0.779935375499
-0.779935375321
-0.779935375135
-0.77993537494
-0.779935374737
-0.779935374527
-0.779935374308
-0.779935374081
-0.779935373847
-0.779935373604
-0.779935373353
-0.779935373095
-0.779935372829
-0.779935372555
-0.779935372273
-0.779935371983
-0.779935371686
-0.779935371382
-0.779935371069
-0.77993537075
-0.779935370422
-0.779935370088
-0.779935369746
-0.779935369397
-0.77993536904
-0.779935368676