/*--------------------------------*- C++ -*----------------------------------*\
  =========                 |
  \\      /  F ield         | OpenFOAM: The Open Source CFD Toolbox
   \\    /   O peration     | Website:  https://openfoam.org
    \\  /    A nd           | Version:  7
     \\/     M anipulation  |
\*---------------------------------------------------------------------------*/
FoamFile
{
    version     2.0;
    format      ascii;
    class       volVectorField;
    location    "175";
    object      Utheta;
}
// * * * * * * * * * * * * * * * * * * * * * * * * * * * * * * * * * * * * * //

dimensions      [0 1 -1 0 0 0 0];

internalField   nonuniform List<vector> 
5009
(
(0 0 -4.753912165e-09)
(0 0 -4.753609464e-09)
(0 0 -4.753501683e-09)
(0 0 -4.753435685e-09)
(0 0 -4.753389629e-09)
(0 0 -4.753355687e-09)
(0 0 -4.753329852e-09)
(0 0 -4.753309746e-09)
(0 0 -4.753293832e-09)
(0 0 -4.753281064e-09)
(0 0 -4.753270703e-09)
(0 0 -4.753262212e-09)
(0 0 -4.753255191e-09)
(0 0 -4.753249342e-09)
(0 0 -4.753244433e-09)
(0 0 -4.753240286e-09)
(0 0 -4.753236762e-09)
(0 0 -4.75323375e-09)
(0 0 -4.753231163e-09)
(0 0 -4.75322893e-09)
(0 0 -4.753226994e-09)
(0 0 -4.753225307e-09)
(0 0 -4.753223833e-09)
(0 0 -4.75322254e-09)
(0 0 -4.7532214e-09)
(0 0 -4.753220394e-09)
(0 0 -4.753219502e-09)
(0 0 -4.75321871e-09)
(0 0 -4.753218004e-09)
(0 0 -4.753217374e-09)
(0 0 -4.753216809e-09)
(0 0 -4.753216303e-09)
(0 0 -4.753215848e-09)
(0 0 -4.753215439e-09)
(0 0 -4.75321507e-09)
(0 0 -4.753214737e-09)
(0 0 -4.753214436e-09)
(0 0 -4.753214164e-09)
(0 0 -4.753213917e-09)
(0 0 -4.753213694e-09)
(0 0 -4.753213492e-09)
(0 0 -4.753213309e-09)
(0 0 -4.753213143e-09)
(0 0 -4.753212993e-09)
(0 0 -4.753212858e-09)
(0 0 -4.753212735e-09)
(0 0 -4.753212625e-09)
(0 0 -4.753212525e-09)
(0 0 -4.753212436e-09)
(0 0 -4.753212356e-09)
(0 0 -4.753212285e-09)
(0 0 -4.753212222e-09)
(0 0 -4.753212166e-09)
(0 0 -4.753212117e-09)
(0 0 -4.753212074e-09)
(0 0 -4.753212037e-09)
(0 0 -4.753212006e-09)
(0 0 -4.75321198e-09)
(0 0 -4.753211959e-09)
(0 0 -4.753211942e-09)
(0 0 -4.75321193e-09)
(0 0 -4.753211922e-09)
(0 0 -4.753211917e-09)
(0 0 -4.753211915e-09)
(0 0 -4.753211917e-09)
(0 0 -4.753211922e-09)
(0 0 -4.75321193e-09)
(0 0 -4.75321194e-09)
(0 0 -4.753211953e-09)
(0 0 -4.753211968e-09)
(0 0 -4.753211985e-09)
(0 0 -4.753212004e-09)
(0 0 -4.753212025e-09)
(0 0 -4.753212047e-09)
(0 0 -4.753212072e-09)
(0 0 -4.753212097e-09)
(0 0 -4.753212124e-09)
(0 0 -4.753212152e-09)
(0 0 -4.753212181e-09)
(0 0 -4.753212211e-09)
(0 0 -4.753212242e-09)
(0 0 -4.753212273e-09)
(0 0 -4.753212306e-09)
(0 0 -4.753212338e-09)
(0 0 -4.753212371e-09)
(0 0 -4.753212405e-09)
(0 0 -4.753212438e-09)
(0 0 -4.753212472e-09)
(0 0 -4.753212506e-09)
(0 0 -4.75321254e-09)
(0 0 -4.753212573e-09)
(0 0 -4.753212607e-09)
(0 0 -4.75321264e-09)
(0 0 -4.753212673e-09)
(0 0 -4.753212705e-09)
(0 0 -4.753212737e-09)
(0 0 -4.753212768e-09)
(0 0 -4.753212799e-09)
(0 0 -4.753212829e-09)
(0 0 -4.753212859e-09)
(0 0 -4.753212887e-09)
(0 0 -4.753212915e-09)
(0 0 -4.753212942e-09)
(0 0 -4.753212968e-09)
(0 0 -4.753212993e-09)
(0 0 -4.753213017e-09)
(0 0 -4.75321304e-09)
(0 0 -4.753213062e-09)
(0 0 -4.753213083e-09)
(0 0 -4.753213103e-09)
(0 0 -4.753213121e-09)
(0 0 -4.753213139e-09)
(0 0 -4.753213155e-09)
(0 0 -4.753213171e-09)
(0 0 -4.753213185e-09)
(0 0 -4.753213198e-09)
(0 0 -4.753213209e-09)
(0 0 -4.75321322e-09)
(0 0 -4.753213229e-09)
(0 0 -4.753213238e-09)
(0 0 -4.753213245e-09)
(0 0 -4.753213251e-09)
(0 0 -4.753213256e-09)
(0 0 -4.753213259e-09)
(0 0 -4.753213262e-09)
(0 0 -4.753213264e-09)
(0 0 -4.753213264e-09)
(0 0 -4.753213264e-09)
(0 0 -4.753213263e-09)
(0 0 -4.753213261e-09)
(0 0 -4.753213258e-09)
(0 0 -4.753213254e-09)
(0 0 -4.753213249e-09)
(0 0 -4.753213244e-09)
(0 0 -4.753213237e-09)
(0 0 -4.75321323e-09)
(0 0 -4.753213223e-09)
(0 0 -4.753213215e-09)
(0 0 -4.753213206e-09)
(0 0 -4.753213197e-09)
(0 0 -4.753213187e-09)
(0 0 -4.753213177e-09)
(0 0 -4.753213167e-09)
(0 0 -4.753213156e-09)
(0 0 -4.753213145e-09)
(0 0 -4.753213133e-09)
(0 0 -4.753213122e-09)
(0 0 -4.75321311e-09)
(0 0 -4.753213098e-09)
(0 0 -4.753213087e-09)
(0 0 -4.753213075e-09)
(0 0 -4.753213063e-09)
(0 0 -4.753213051e-09)
(0 0 -4.75321304e-09)
(0 0 -4.753213028e-09)
(0 0 -4.753213017e-09)
(0 0 -4.753213006e-09)
(0 0 -4.753212995e-09)
(0 0 -4.753212984e-09)
(0 0 -4.753212974e-09)
(0 0 -4.753212964e-09)
(0 0 -4.753212954e-09)
(0 0 -4.753212945e-09)
(0 0 -4.753212936e-09)
(0 0 -4.753212927e-09)
(0 0 -4.753212919e-09)
(0 0 -4.753212912e-09)
(0 0 -4.753212905e-09)
(0 0 -4.753212898e-09)
(0 0 -4.753212892e-09)
(0 0 -4.753212886e-09)
(0 0 -4.753212881e-09)
(0 0 -4.753212876e-09)
(0 0 -4.753212872e-09)
(0 0 -4.753212869e-09)
(0 0 -4.753212866e-09)
(0 0 -4.753212863e-09)
(0 0 -4.753212861e-09)
(0 0 -4.753212859e-09)
(0 0 -4.753212858e-09)
(0 0 -4.753212858e-09)
(0 0 -4.753212858e-09)
(0 0 -4.753212858e-09)
(0 0 -4.753212859e-09)
(0 0 -4.75321286e-09)
(0 0 -4.753212862e-09)
(0 0 -4.753212864e-09)
(0 0 -4.753212867e-09)
(0 0 -4.75321287e-09)
(0 0 -4.753212873e-09)
(0 0 -4.753212877e-09)
(0 0 -4.753212881e-09)
(0 0 -4.753212885e-09)
(0 0 -4.75321289e-09)
(0 0 -4.753212895e-09)
(0 0 -4.7532129e-09)
(0 0 -4.753212905e-09)
(0 0 -4.753212911e-09)
(0 0 -4.753212917e-09)
(0 0 -4.753212923e-09)
(0 0 -4.753212929e-09)
(0 0 -4.753212935e-09)
(0 0 -4.753212941e-09)
(0 0 -4.753212948e-09)
(0 0 -4.753212954e-09)
(0 0 -4.753212961e-09)
(0 0 -4.753212968e-09)
(0 0 -4.753212974e-09)
(0 0 -4.753212981e-09)
(0 0 -4.753212987e-09)
(0 0 -4.753212994e-09)
(0 0 -4.753213e-09)
(0 0 -4.753213007e-09)
(0 0 -4.753213013e-09)
(0 0 -4.753213019e-09)
(0 0 -4.753213025e-09)
(0 0 -4.753213031e-09)
(0 0 -4.753213037e-09)
(0 0 -4.753213042e-09)
(0 0 -4.753213047e-09)
(0 0 -4.753213052e-09)
(0 0 -4.753213057e-09)
(0 0 -4.753213062e-09)
(0 0 -4.753213066e-09)
(0 0 -4.753213071e-09)
(0 0 -4.753213075e-09)
(0 0 -4.753213078e-09)
(0 0 -4.753213082e-09)
(0 0 -4.753213085e-09)
(0 0 -4.753213088e-09)
(0 0 -4.753213091e-09)
(0 0 -4.753213093e-09)
(0 0 -4.753213095e-09)
(0 0 -4.753213097e-09)
(0 0 -4.753213098e-09)
(0 0 -4.7532131e-09)
(0 0 -4.753213101e-09)
(0 0 -4.753213101e-09)
(0 0 -4.753213102e-09)
(0 0 -4.753213102e-09)
(0 0 -4.753213102e-09)
(0 0 -4.753213102e-09)
(0 0 -4.753213101e-09)
(0 0 -4.7532131e-09)
(0 0 -4.753213099e-09)
(0 0 -4.753213098e-09)
(0 0 -4.753213096e-09)
(0 0 -4.753213094e-09)
(0 0 -4.753213092e-09)
(0 0 -4.75321309e-09)
(0 0 -4.753213088e-09)
(0 0 -4.753213085e-09)
(0 0 -4.753213082e-09)
(0 0 -4.753213079e-09)
(0 0 -4.753213076e-09)
(0 0 -4.753213073e-09)
(0 0 -4.75321307e-09)
(0 0 -4.753213066e-09)
(0 0 -4.753213062e-09)
(0 0 -4.753213059e-09)
(0 0 -4.753213055e-09)
(0 0 -4.753213051e-09)
(0 0 -4.753213047e-09)
(0 0 -4.753213042e-09)
(0 0 -4.753213038e-09)
(0 0 -4.753213034e-09)
(0 0 -4.75321303e-09)
(0 0 -4.753213025e-09)
(0 0 -4.753213021e-09)
(0 0 -4.753213017e-09)
(0 0 -4.753213012e-09)
(0 0 -4.753213008e-09)
(0 0 -4.753213004e-09)
(0 0 -4.753212999e-09)
(0 0 -4.753212995e-09)
(0 0 -4.753212991e-09)
(0 0 -4.753212987e-09)
(0 0 -4.753212982e-09)
(0 0 -4.753212978e-09)
(0 0 -4.753212974e-09)
(0 0 -4.75321297e-09)
(0 0 -4.753212967e-09)
(0 0 -4.753212963e-09)
(0 0 -4.753212959e-09)
(0 0 -4.753212956e-09)
(0 0 -4.753212952e-09)
(0 0 -4.753212949e-09)
(0 0 -4.753212946e-09)
(0 0 -4.753212943e-09)
(0 0 -4.75321294e-09)
(0 0 -4.753212938e-09)
(0 0 -4.753212935e-09)
(0 0 -4.753212933e-09)
(0 0 -4.75321293e-09)
(0 0 -4.753212928e-09)
(0 0 -4.753212926e-09)
(0 0 -4.753212924e-09)
(0 0 -4.753212923e-09)
(0 0 -4.753212921e-09)
(0 0 -4.75321292e-09)
(0 0 -4.753212919e-09)
(0 0 -4.753212918e-09)
(0 0 -4.753212917e-09)
(0 0 -4.753212916e-09)
(0 0 -4.753212916e-09)
(0 0 -4.753212915e-09)
(0 0 -4.753212915e-09)
(0 0 -4.753212915e-09)
(0 0 -4.753212915e-09)
(0 0 -4.753212916e-09)
(0 0 -4.753212916e-09)
(0 0 -4.753212917e-09)
(0 0 -4.753212917e-09)
(0 0 -4.753212918e-09)
(0 0 -4.753212919e-09)
(0 0 -4.75321292e-09)
(0 0 -4.753212922e-09)
(0 0 -4.753212923e-09)
(0 0 -4.753212925e-09)
(0 0 -4.753212926e-09)
(0 0 -4.753212928e-09)
(0 0 -4.75321293e-09)
(0 0 -4.753212932e-09)
(0 0 -4.753212934e-09)
(0 0 -4.753212937e-09)
(0 0 -4.753212939e-09)
(0 0 -4.753212941e-09)
(0 0 -4.753212944e-09)
(0 0 -4.753212947e-09)
(0 0 -4.753212949e-09)
(0 0 -4.753212952e-09)
(0 0 -4.753212955e-09)
(0 0 -4.753212958e-09)
(0 0 -4.753212961e-09)
(0 0 -4.753212964e-09)
(0 0 -4.753212967e-09)
(0 0 -4.75321297e-09)
(0 0 -4.753212973e-09)
(0 0 -4.753212976e-09)
(0 0 -4.753212979e-09)
(0 0 -4.753212982e-09)
(0 0 -4.753212986e-09)
(0 0 -4.753212989e-09)
(0 0 -4.753212992e-09)
(0 0 -4.753212995e-09)
(0 0 -4.753212999e-09)
(0 0 -4.753213002e-09)
(0 0 -4.753213005e-09)
(0 0 -4.753213008e-09)
(0 0 -4.753213011e-09)
(0 0 -4.753213014e-09)
(0 0 -4.753213017e-09)
(0 0 -4.75321302e-09)
(0 0 -4.753213023e-09)
(0 0 -4.753213026e-09)
(0 0 -4.753213029e-09)
(0 0 -4.753213032e-09)
(0 0 -4.753213035e-09)
(0 0 -4.753213037e-09)
(0 0 -4.75321304e-09)
(0 0 -4.753213043e-09)
(0 0 -4.753213045e-09)
(0 0 -4.753213048e-09)
(0 0 -4.75321305e-09)
(0 0 -4.753213052e-09)
(0 0 -4.753213054e-09)
(0 0 -4.753213056e-09)
(0 0 -4.753213058e-09)
(0 0 -4.75321306e-09)
(0 0 -4.753213062e-09)
(0 0 -4.753213064e-09)
(0 0 -4.753213065e-09)
(0 0 -4.753213067e-09)
(0 0 -4.753213068e-09)
(0 0 -4.75321307e-09)
(0 0 -4.753213071e-09)
(0 0 -4.753213072e-09)
(0 0 -4.753213073e-09)
(0 0 -4.753213074e-09)
(0 0 -4.753213074e-09)
(0 0 -4.753213075e-09)
(0 0 -4.753213076e-09)
(0 0 -4.753213076e-09)
(0 0 -4.753213077e-09)
(0 0 -4.753213077e-09)
(0 0 -4.753213077e-09)
(0 0 -4.753213077e-09)
(0 0 -4.753213077e-09)
(0 0 -4.753213077e-09)
(0 0 -4.753213077e-09)
(0 0 -4.753213076e-09)
(0 0 -4.753213076e-09)
(0 0 -4.753213075e-09)
(0 0 -4.753213074e-09)
(0 0 -4.753213074e-09)
(0 0 -4.753213073e-09)
(0 0 -4.753213072e-09)
(0 0 -4.753213071e-09)
(0 0 -4.75321307e-09)
(0 0 -4.753213069e-09)
(0 0 -4.753213067e-09)
(0 0 -4.753213066e-09)
(0 0 -4.753213064e-09)
(0 0 -4.753213063e-09)
(0 0 -4.753213061e-09)
(0 0 -4.75321306e-09)
(0 0 -4.753213058e-09)
(0 0 -4.753213056e-09)
(0 0 -4.753213054e-09)
(0 0 -4.753213052e-09)
(0 0 -4.75321305e-09)
(0 0 -4.753213048e-09)
(0 0 -4.753213046e-09)
(0 0 -4.753213044e-09)
(0 0 -4.753213042e-09)
(0 0 -4.753213039e-09)
(0 0 -4.753213037e-09)
(0 0 -4.753213035e-09)
(0 0 -4.753213032e-09)
(0 0 -4.75321303e-09)
(0 0 -4.753213027e-09)
(0 0 -4.753213025e-09)
(0 0 -4.753213022e-09)
(0 0 -4.75321302e-09)
(0 0 -4.753213017e-09)
(0 0 -4.753213015e-09)
(0 0 -4.753213012e-09)
(0 0 -4.75321301e-09)
(0 0 -4.753213007e-09)
(0 0 -4.753213005e-09)
(0 0 -4.753213002e-09)
(0 0 -4.753213e-09)
(0 0 -4.753212997e-09)
(0 0 -4.753212994e-09)
(0 0 -4.753212992e-09)
(0 0 -4.753212989e-09)
(0 0 -4.753212987e-09)
(0 0 -4.753212984e-09)
(0 0 -4.753212982e-09)
(0 0 -4.75321298e-09)
(0 0 -4.753212977e-09)
(0 0 -4.753212975e-09)
(0 0 -4.753212972e-09)
(0 0 -4.75321297e-09)
(0 0 -4.753212968e-09)
(0 0 -4.753212966e-09)
(0 0 -4.753212963e-09)
(0 0 -4.753212961e-09)
(0 0 -4.753212959e-09)
(0 0 -4.753212957e-09)
(0 0 -4.753212955e-09)
(0 0 -4.753212953e-09)
(0 0 -4.753212951e-09)
(0 0 -4.75321295e-09)
(0 0 -4.753212948e-09)
(0 0 -4.753212946e-09)
(0 0 -4.753212945e-09)
(0 0 -4.753212943e-09)
(0 0 -4.753212941e-09)
(0 0 -4.75321294e-09)
(0 0 -4.753212939e-09)
(0 0 -4.753212937e-09)
(0 0 -4.753212936e-09)
(0 0 -4.753212935e-09)
(0 0 -4.753212934e-09)
(0 0 -4.753212933e-09)
(0 0 -4.753212932e-09)
(0 0 -4.753212931e-09)
(0 0 -4.75321293e-09)
(0 0 -4.753212929e-09)
(0 0 -4.753212929e-09)
(0 0 -4.753212928e-09)
(0 0 -4.753212928e-09)
(0 0 -4.753212927e-09)
(0 0 -4.753212927e-09)
(0 0 -4.753212927e-09)
(0 0 -4.753212926e-09)
(0 0 -4.753212926e-09)
(0 0 -4.753212926e-09)
(0 0 -4.753212926e-09)
(0 0 -4.753212926e-09)
(0 0 -4.753212926e-09)
(0 0 -4.753212927e-09)
(0 0 -4.753212927e-09)
(0 0 -4.753212927e-09)
(0 0 -4.753212928e-09)
(0 0 -4.753212928e-09)
(0 0 -4.753212929e-09)
(0 0 -4.75321293e-09)
(0 0 -4.75321293e-09)
(0 0 -4.753212931e-09)
(0 0 -4.753212932e-09)
(0 0 -4.753212933e-09)
(0 0 -4.753212934e-09)
(0 0 -4.753212935e-09)
(0 0 -4.753212936e-09)
(0 0 -4.753212937e-09)
(0 0 -4.753212938e-09)
(0 0 -4.75321294e-09)
(0 0 -4.753212941e-09)
(0 0 -4.753212942e-09)
(0 0 -4.753212944e-09)
(0 0 -4.753212945e-09)
(0 0 -4.753212947e-09)
(0 0 -4.753212948e-09)
(0 0 -4.75321295e-09)
(0 0 -4.753212952e-09)
(0 0 -4.753212954e-09)
(0 0 -4.753212955e-09)
(0 0 -4.753212957e-09)
(0 0 -4.753212959e-09)
(0 0 -4.753212961e-09)
(0 0 -4.753212963e-09)
(0 0 -4.753212965e-09)
(0 0 -4.753212967e-09)
(0 0 -4.753212969e-09)
(0 0 -4.753212971e-09)
(0 0 -4.753212973e-09)
(0 0 -4.753212975e-09)
(0 0 -4.753212977e-09)
(0 0 -4.753212979e-09)
(0 0 -4.753212981e-09)
(0 0 -4.753212983e-09)
(0 0 -4.753212985e-09)
(0 0 -4.753212988e-09)
(0 0 -4.75321299e-09)
(0 0 -4.753212992e-09)
(0 0 -4.753212994e-09)
(0 0 -4.753212996e-09)
(0 0 -4.753212999e-09)
(0 0 -4.753213001e-09)
(0 0 -4.753213003e-09)
(0 0 -4.753213005e-09)
(0 0 -4.753213007e-09)
(0 0 -4.753213009e-09)
(0 0 -4.753213012e-09)
(0 0 -4.753213014e-09)
(0 0 -4.753213016e-09)
(0 0 -4.753213018e-09)
(0 0 -4.75321302e-09)
(0 0 -4.753213022e-09)
(0 0 -4.753213024e-09)
(0 0 -4.753213026e-09)
(0 0 -4.753213028e-09)
(0 0 -4.75321303e-09)
(0 0 -4.753213032e-09)
(0 0 -4.753213034e-09)
(0 0 -4.753213036e-09)
(0 0 -4.753213038e-09)
(0 0 -4.75321304e-09)
(0 0 -4.753213041e-09)
(0 0 -4.753213043e-09)
(0 0 -4.753213045e-09)
(0 0 -4.753213046e-09)
(0 0 -4.753213048e-09)
(0 0 -4.75321305e-09)
(0 0 -4.753213051e-09)
(0 0 -4.753213053e-09)
(0 0 -4.753213054e-09)
(0 0 -4.753213056e-09)
(0 0 -4.753213057e-09)
(0 0 -4.753213058e-09)
(0 0 -4.753213059e-09)
(0 0 -4.753213061e-09)
(0 0 -4.753213062e-09)
(0 0 -4.753213063e-09)
(0 0 -4.753213064e-09)
(0 0 -4.753213065e-09)
(0 0 -4.753213066e-09)
(0 0 -4.753213067e-09)
(0 0 -4.753213068e-09)
(0 0 -4.753213069e-09)
(0 0 -4.753213069e-09)
(0 0 -4.75321307e-09)
(0 0 -4.753213071e-09)
(0 0 -4.753213071e-09)
(0 0 -4.753213072e-09)
(0 0 -4.753213072e-09)
(0 0 -4.753213073e-09)
(0 0 -4.753213073e-09)
(0 0 -4.753213073e-09)
(0 0 -4.753213073e-09)
(0 0 -4.753213074e-09)
(0 0 -4.753213074e-09)
(0 0 -4.753213074e-09)
(0 0 -4.753213074e-09)
(0 0 -4.753213074e-09)
(0 0 -4.753213074e-09)
(0 0 -4.753213073e-09)
(0 0 -4.753213073e-09)
(0 0 -4.753213073e-09)
(0 0 -4.753213073e-09)
(0 0 -4.753213072e-09)
(0 0 -4.753213072e-09)
(0 0 -4.753213071e-09)
(0 0 -4.753213071e-09)
(0 0 -4.75321307e-09)
(0 0 -4.753213069e-09)
(0 0 -4.753213069e-09)
(0 0 -4.753213068e-09)
(0 0 -4.753213067e-09)
(0 0 -4.753213066e-09)
(0 0 -4.753213065e-09)
(0 0 -4.753213064e-09)
(0 0 -4.753213063e-09)
(0 0 -4.753213062e-09)
(0 0 -4.753213061e-09)
(0 0 -4.75321306e-09)
(0 0 -4.753213059e-09)
(0 0 -4.753213058e-09)
(0 0 -4.753213056e-09)
(0 0 -4.753213055e-09)
(0 0 -4.753213054e-09)
(0 0 -4.753213052e-09)
(0 0 -4.753213051e-09)
(0 0 -4.753213049e-09)
(0 0 -4.753213048e-09)
(0 0 -4.753213046e-09)
(0 0 -4.753213045e-09)
(0 0 -4.753213043e-09)
(0 0 -4.753213041e-09)
(0 0 -4.75321304e-09)
(0 0 -4.753213038e-09)
(0 0 -4.753213036e-09)
(0 0 -4.753213035e-09)
(0 0 -4.753213033e-09)
(0 0 -4.753213031e-09)
(0 0 -4.753213029e-09)
(0 0 -4.753213027e-09)
(0 0 -4.753213026e-09)
(0 0 -4.753213024e-09)
(0 0 -4.753213022e-09)
(0 0 -4.75321302e-09)
(0 0 -4.753213018e-09)
(0 0 -4.753213016e-09)
(0 0 -4.753213014e-09)
(0 0 -4.753213012e-09)
(0 0 -4.75321301e-09)
(0 0 -4.753213008e-09)
(0 0 -4.753213006e-09)
(0 0 -4.753213004e-09)
(0 0 -4.753213003e-09)
(0 0 -4.753213001e-09)
(0 0 -4.753212999e-09)
(0 0 -4.753212997e-09)
(0 0 -4.753212995e-09)
(0 0 -4.753212993e-09)
(0 0 -4.753212991e-09)
(0 0 -4.753212989e-09)
(0 0 -4.753212987e-09)
(0 0 -4.753212985e-09)
(0 0 -4.753212983e-09)
(0 0 -4.753212981e-09)
(0 0 -4.753212979e-09)
(0 0 -4.753212977e-09)
(0 0 -4.753212976e-09)
(0 0 -4.753212974e-09)
(0 0 -4.753212972e-09)
(0 0 -4.75321297e-09)
(0 0 -4.753212968e-09)
(0 0 -4.753212967e-09)
(0 0 -4.753212965e-09)
(0 0 -4.753212963e-09)
(0 0 -4.753212961e-09)
(0 0 -4.75321296e-09)
(0 0 -4.753212958e-09)
(0 0 -4.753212957e-09)
(0 0 -4.753212955e-09)
(0 0 -4.753212953e-09)
(0 0 -4.753212952e-09)
(0 0 -4.75321295e-09)
(0 0 -4.753212949e-09)
(0 0 -4.753212948e-09)
(0 0 -4.753212946e-09)
(0 0 -4.753212945e-09)
(0 0 -4.753212944e-09)
(0 0 -4.753212942e-09)
(0 0 -4.753212941e-09)
(0 0 -4.75321294e-09)
(0 0 -4.753212939e-09)
(0 0 -4.753212938e-09)
(0 0 -4.753212937e-09)
(0 0 -4.753212935e-09)
(0 0 -4.753212935e-09)
(0 0 -4.753212934e-09)
(0 0 -4.753212933e-09)
(0 0 -4.753212932e-09)
(0 0 -4.753212931e-09)
(0 0 -4.75321293e-09)
(0 0 -4.753212929e-09)
(0 0 -4.753212929e-09)
(0 0 -4.753212928e-09)
(0 0 -4.753212928e-09)
(0 0 -4.753212927e-09)
(0 0 -4.753212926e-09)
(0 0 -4.753212926e-09)
(0 0 -4.753212926e-09)
(0 0 -4.753212925e-09)
(0 0 -4.753212925e-09)
(0 0 -4.753212925e-09)
(0 0 -4.753212924e-09)
(0 0 -4.753212924e-09)
(0 0 -4.753212924e-09)
(0 0 -4.753212924e-09)
(0 0 -4.753212924e-09)
(0 0 -4.753212924e-09)
(0 0 -4.753212924e-09)
(0 0 -4.753212924e-09)
(0 0 -4.753212924e-09)
(0 0 -4.753212924e-09)
(0 0 -4.753212925e-09)
(0 0 -4.753212925e-09)
(0 0 -4.753212925e-09)
(0 0 -4.753212926e-09)
(0 0 -4.753212926e-09)
(0 0 -4.753212927e-09)
(0 0 -4.753212927e-09)
(0 0 -4.753212928e-09)
(0 0 -4.753212928e-09)
(0 0 -4.753212929e-09)
(0 0 -4.75321293e-09)
(0 0 -4.75321293e-09)
(0 0 -4.753212931e-09)
(0 0 -4.753212932e-09)
(0 0 -4.753212933e-09)
(0 0 -4.753212934e-09)
(0 0 -4.753212935e-09)
(0 0 -4.753212936e-09)
(0 0 -4.753212937e-09)
(0 0 -4.753212938e-09)
(0 0 -4.753212939e-09)
(0 0 -4.75321294e-09)
(0 0 -4.753212941e-09)
(0 0 -4.753212942e-09)
(0 0 -4.753212943e-09)
(0 0 -4.753212945e-09)
(0 0 -4.753212946e-09)
(0 0 -4.753212947e-09)
(0 0 -4.753212949e-09)
(0 0 -4.75321295e-09)
(0 0 -4.753212951e-09)
(0 0 -4.753212953e-09)
(0 0 -4.753212954e-09)
(0 0 -4.753212956e-09)
(0 0 -4.753212957e-09)
(0 0 -4.753212959e-09)
(0 0 -4.75321296e-09)
(0 0 -4.753212962e-09)
(0 0 -4.753212964e-09)
(0 0 -4.753212965e-09)
(0 0 -4.753212967e-09)
(0 0 -4.753212969e-09)
(0 0 -4.75321297e-09)
(0 0 -4.753212972e-09)
(0 0 -4.753212974e-09)
(0 0 -4.753212975e-09)
(0 0 -4.753212977e-09)
(0 0 -4.753212979e-09)
(0 0 -4.753212981e-09)
(0 0 -4.753212982e-09)
(0 0 -4.753212984e-09)
(0 0 -4.753212986e-09)
(0 0 -4.753212988e-09)
(0 0 -4.75321299e-09)
(0 0 -4.753212991e-09)
(0 0 -4.753212993e-09)
(0 0 -4.753212995e-09)
(0 0 -4.753212997e-09)
(0 0 -4.753212999e-09)
(0 0 -4.753213001e-09)
(0 0 -4.753213002e-09)
(0 0 -4.753213004e-09)
(0 0 -4.753213006e-09)
(0 0 -4.753213008e-09)
(0 0 -4.75321301e-09)
(0 0 -4.753213012e-09)
(0 0 -4.753213013e-09)
(0 0 -4.753213015e-09)
(0 0 -4.753213017e-09)
(0 0 -4.753213019e-09)
(0 0 -4.753213021e-09)
(0 0 -4.753213022e-09)
(0 0 -4.753213024e-09)
(0 0 -4.753213026e-09)
(0 0 -4.753213028e-09)
(0 0 -4.753213029e-09)
(0 0 -4.753213031e-09)
(0 0 -4.753213033e-09)
(0 0 -4.753213034e-09)
(0 0 -4.753213036e-09)
(0 0 -4.753213038e-09)
(0 0 -4.753213039e-09)
(0 0 -4.753213041e-09)
(0 0 -4.753213042e-09)
(0 0 -4.753213044e-09)
(0 0 -4.753213046e-09)
(0 0 -4.753213047e-09)
(0 0 -4.753213049e-09)
(0 0 -4.75321305e-09)
(0 0 -4.753213051e-09)
(0 0 -4.753213053e-09)
(0 0 -4.753213054e-09)
(0 0 -4.753213056e-09)
(0 0 -4.753213057e-09)
(0 0 -4.753213058e-09)
(0 0 -4.753213059e-09)
(0 0 -4.753213061e-09)
(0 0 -4.753213062e-09)
(0 0 -4.753213063e-09)
(0 0 -4.753213064e-09)
(0 0 -4.753213065e-09)
(0 0 -4.753213066e-09)
(0 0 -4.753213067e-09)
(0 0 -4.753213068e-09)
(0 0 -4.753213069e-09)
(0 0 -4.75321307e-09)
(0 0 -4.753213071e-09)
(0 0 -4.753213072e-09)
(0 0 -4.753213073e-09)
(0 0 -4.753213073e-09)
(0 0 -4.753213074e-09)
(0 0 -4.753213075e-09)
(0 0 -4.753213075e-09)
(0 0 -4.753213076e-09)
(0 0 -4.753213077e-09)
(0 0 -4.753213077e-09)
(0 0 -4.753213078e-09)
(0 0 -4.753213078e-09)
(0 0 -4.753213079e-09)
(0 0 -4.753213079e-09)
(0 0 -4.753213079e-09)
(0 0 -4.75321308e-09)
(0 0 -4.75321308e-09)
(0 0 -4.75321308e-09)
(0 0 -4.75321308e-09)
(0 0 -4.75321308e-09)
(0 0 -4.75321308e-09)
(0 0 -4.753213081e-09)
(0 0 -4.753213081e-09)
(0 0 -4.753213081e-09)
(0 0 -4.75321308e-09)
(0 0 -4.75321308e-09)
(0 0 -4.75321308e-09)
(0 0 -4.75321308e-09)
(0 0 -4.75321308e-09)
(0 0 -4.75321308e-09)
(0 0 -4.753213079e-09)
(0 0 -4.753213079e-09)
(0 0 -4.753213079e-09)
(0 0 -4.753213078e-09)
(0 0 -4.753213078e-09)
(0 0 -4.753213077e-09)
(0 0 -4.753213077e-09)
(0 0 -4.753213076e-09)
(0 0 -4.753213075e-09)
(0 0 -4.753213075e-09)
(0 0 -4.753213074e-09)
(0 0 -4.753213073e-09)
(0 0 -4.753213073e-09)
(0 0 -4.753213072e-09)
(0 0 -4.753213071e-09)
(0 0 -4.75321307e-09)
(0 0 -4.753213069e-09)
(0 0 -4.753213068e-09)
(0 0 -4.753213067e-09)
(0 0 -4.753213066e-09)
(0 0 -4.753213065e-09)
(0 0 -4.753213064e-09)
(0 0 -4.753213063e-09)
(0 0 -4.753213062e-09)
(0 0 -4.753213061e-09)
(0 0 -4.75321306e-09)
(0 0 -4.753213059e-09)
(0 0 -4.753213057e-09)
(0 0 -4.753213056e-09)
(0 0 -4.753213055e-09)
(0 0 -4.753213053e-09)
(0 0 -4.753213052e-09)
(0 0 -4.753213051e-09)
(0 0 -4.753213049e-09)
(0 0 -4.753213048e-09)
(0 0 -4.753213046e-09)
(0 0 -4.753213045e-09)
(0 0 -4.753213043e-09)
(0 0 -4.753213042e-09)
(0 0 -4.75321304e-09)
(0 0 -4.753213039e-09)
(0 0 -4.753213037e-09)
(0 0 -4.753213036e-09)
(0 0 -4.753213034e-09)
(0 0 -4.753213032e-09)
(0 0 -4.753213031e-09)
(0 0 -4.753213029e-09)
(0 0 -4.753213028e-09)
(0 0 -4.753213026e-09)
(0 0 -4.753213024e-09)
(0 0 -4.753213022e-09)
(0 0 -4.753213021e-09)
(0 0 -4.753213019e-09)
(0 0 -4.753213017e-09)
(0 0 -4.753213015e-09)
(0 0 -4.753213014e-09)
(0 0 -4.753213012e-09)
(0 0 -4.75321301e-09)
(0 0 -4.753213008e-09)
(0 0 -4.753213007e-09)
(0 0 -4.753213005e-09)
(0 0 -4.753213003e-09)
(0 0 -4.753213001e-09)
(0 0 -4.753213e-09)
(0 0 -4.753212998e-09)
(0 0 -4.753212996e-09)
(0 0 -4.753212994e-09)
(0 0 -4.753212992e-09)
(0 0 -4.753212991e-09)
(0 0 -4.753212989e-09)
(0 0 -4.753212987e-09)
(0 0 -4.753212985e-09)
(0 0 -4.753212983e-09)
(0 0 -4.753212982e-09)
(0 0 -4.75321298e-09)
(0 0 -4.753212978e-09)
(0 0 -4.753212976e-09)
(0 0 -4.753212975e-09)
(0 0 -4.753212973e-09)
(0 0 -4.753212971e-09)
(0 0 -4.75321297e-09)
(0 0 -4.753212968e-09)
(0 0 -4.753212966e-09)
(0 0 -4.753212965e-09)
(0 0 -4.753212963e-09)
(0 0 -4.753212961e-09)
(0 0 -4.75321296e-09)
(0 0 -4.753212958e-09)
(0 0 -4.753212957e-09)
(0 0 -4.753212955e-09)
(0 0 -4.753212954e-09)
(0 0 -4.753212952e-09)
(0 0 -4.753212951e-09)
(0 0 -4.753212949e-09)
(0 0 -4.753212948e-09)
(0 0 -4.753212946e-09)
(0 0 -4.753212945e-09)
(0 0 -4.753212943e-09)
(0 0 -4.753212942e-09)
(0 0 -4.753212941e-09)
(0 0 -4.753212939e-09)
(0 0 -4.753212938e-09)
(0 0 -4.753212937e-09)
(0 0 -4.753212936e-09)
(0 0 -4.753212934e-09)
(0 0 -4.753212933e-09)
(0 0 -4.753212932e-09)
(0 0 -4.753212931e-09)
(0 0 -4.75321293e-09)
(0 0 -4.753212929e-09)
(0 0 -4.753212928e-09)
(0 0 -4.753212927e-09)
(0 0 -4.753212926e-09)
(0 0 -4.753212925e-09)
(0 0 -4.753212924e-09)
(0 0 -4.753212923e-09)
(0 0 -4.753212922e-09)
(0 0 -4.753212922e-09)
(0 0 -4.753212921e-09)
(0 0 -4.75321292e-09)
(0 0 -4.753212919e-09)
(0 0 -4.753212919e-09)
(0 0 -4.753212918e-09)
(0 0 -4.753212917e-09)
(0 0 -4.753212917e-09)
(0 0 -4.753212916e-09)
(0 0 -4.753212916e-09)
(0 0 -4.753212915e-09)
(0 0 -4.753212915e-09)
(0 0 -4.753212914e-09)
(0 0 -4.753212914e-09)
(0 0 -4.753212914e-09)
(0 0 -4.753212914e-09)
(0 0 -4.753212913e-09)
(0 0 -4.753212913e-09)
(0 0 -4.753212913e-09)
(0 0 -4.753212913e-09)
(0 0 -4.753212913e-09)
(0 0 -4.753212913e-09)
(0 0 -4.753212913e-09)
(0 0 -4.753212913e-09)
(0 0 -4.753212913e-09)
(0 0 -4.753212913e-09)
(0 0 -4.753212913e-09)
(0 0 -4.753212913e-09)
(0 0 -4.753212913e-09)
(0 0 -4.753212913e-09)
(0 0 -4.753212914e-09)
(0 0 -4.753212914e-09)
(0 0 -4.753212914e-09)
(0 0 -4.753212915e-09)
(0 0 -4.753212915e-09)
(0 0 -4.753212915e-09)
(0 0 -4.753212916e-09)
(0 0 -4.753212916e-09)
(0 0 -4.753212917e-09)
(0 0 -4.753212917e-09)
(0 0 -4.753212918e-09)
(0 0 -4.753212919e-09)
(0 0 -4.753212919e-09)
(0 0 -4.75321292e-09)
(0 0 -4.753212921e-09)
(0 0 -4.753212922e-09)
(0 0 -4.753212922e-09)
(0 0 -4.753212923e-09)
(0 0 -4.753212924e-09)
(0 0 -4.753212925e-09)
(0 0 -4.753212926e-09)
(0 0 -4.753212927e-09)
(0 0 -4.753212928e-09)
(0 0 -4.753212929e-09)
(0 0 -4.75321293e-09)
(0 0 -4.753212931e-09)
(0 0 -4.753212932e-09)
(0 0 -4.753212933e-09)
(0 0 -4.753212935e-09)
(0 0 -4.753212936e-09)
(0 0 -4.753212937e-09)
(0 0 -4.753212938e-09)
(0 0 -4.753212939e-09)
(0 0 -4.753212941e-09)
(0 0 -4.753212942e-09)
(0 0 -4.753212943e-09)
(0 0 -4.753212945e-09)
(0 0 -4.753212946e-09)
(0 0 -4.753212948e-09)
(0 0 -4.753212949e-09)
(0 0 -4.75321295e-09)
(0 0 -4.753212952e-09)
(0 0 -4.753212953e-09)
(0 0 -4.753212955e-09)
(0 0 -4.753212956e-09)
(0 0 -4.753212958e-09)
(0 0 -4.75321296e-09)
(0 0 -4.753212961e-09)
(0 0 -4.753212963e-09)
(0 0 -4.753212964e-09)
(0 0 -4.753212966e-09)
(0 0 -4.753212968e-09)
(0 0 -4.753212969e-09)
(0 0 -4.753212971e-09)
(0 0 -4.753212973e-09)
(0 0 -4.753212974e-09)
(0 0 -4.753212976e-09)
(0 0 -4.753212978e-09)
(0 0 -4.75321298e-09)
(0 0 -4.753212981e-09)
(0 0 -4.753212983e-09)
(0 0 -4.753212985e-09)
(0 0 -4.753212987e-09)
(0 0 -4.753212988e-09)
(0 0 -4.75321299e-09)
(0 0 -4.753212992e-09)
(0 0 -4.753212994e-09)
(0 0 -4.753212995e-09)
(0 0 -4.753212997e-09)
(0 0 -4.753212999e-09)
(0 0 -4.753213001e-09)
(0 0 -4.753213003e-09)
(0 0 -4.753213004e-09)
(0 0 -4.753213006e-09)
(0 0 -4.753213008e-09)
(0 0 -4.75321301e-09)
(0 0 -4.753213012e-09)
(0 0 -4.753213013e-09)
(0 0 -4.753213015e-09)
(0 0 -4.753213017e-09)
(0 0 -4.753213019e-09)
(0 0 -4.753213021e-09)
(0 0 -4.753213022e-09)
(0 0 -4.753213024e-09)
(0 0 -4.753213026e-09)
(0 0 -4.753213028e-09)
(0 0 -4.753213029e-09)
(0 0 -4.753213031e-09)
(0 0 -4.753213033e-09)
(0 0 -4.753213034e-09)
(0 0 -4.753213036e-09)
(0 0 -4.753213038e-09)
(0 0 -4.753213039e-09)
(0 0 -4.753213041e-09)
(0 0 -4.753213043e-09)
(0 0 -4.753213044e-09)
(0 0 -4.753213046e-09)
(0 0 -4.753213048e-09)
(0 0 -4.753213049e-09)
(0 0 -4.753213051e-09)
(0 0 -4.753213052e-09)
(0 0 -4.753213054e-09)
(0 0 -4.753213055e-09)
(0 0 -4.753213057e-09)
(0 0 -4.753213058e-09)
(0 0 -4.75321306e-09)
(0 0 -4.753213061e-09)
(0 0 -4.753213063e-09)
(0 0 -4.753213064e-09)
(0 0 -4.753213065e-09)
(0 0 -4.753213067e-09)
(0 0 -4.753213068e-09)
(0 0 -4.753213069e-09)
(0 0 -4.75321307e-09)
(0 0 -4.753213072e-09)
(0 0 -4.753213073e-09)
(0 0 -4.753213074e-09)
(0 0 -4.753213075e-09)
(0 0 -4.753213076e-09)
(0 0 -4.753213078e-09)
(0 0 -4.753213079e-09)
(0 0 -4.75321308e-09)
(0 0 -4.753213081e-09)
(0 0 -4.753213082e-09)
(0 0 -4.753213083e-09)
(0 0 -4.753213084e-09)
(0 0 -4.753213085e-09)
(0 0 -4.753213085e-09)
(0 0 -4.753213086e-09)
(0 0 -4.753213087e-09)
(0 0 -4.753213088e-09)
(0 0 -4.753213089e-09)
(0 0 -4.753213089e-09)
(0 0 -4.75321309e-09)
(0 0 -4.753213091e-09)
(0 0 -4.753213091e-09)
(0 0 -4.753213092e-09)
(0 0 -4.753213093e-09)
(0 0 -4.753213093e-09)
(0 0 -4.753213094e-09)
(0 0 -4.753213094e-09)
(0 0 -4.753213094e-09)
(0 0 -4.753213095e-09)
(0 0 -4.753213095e-09)
(0 0 -4.753213096e-09)
(0 0 -4.753213096e-09)
(0 0 -4.753213096e-09)
(0 0 -4.753213096e-09)
(0 0 -4.753213097e-09)
(0 0 -4.753213097e-09)
(0 0 -4.753213097e-09)
(0 0 -4.753213097e-09)
(0 0 -4.753213097e-09)
(0 0 -4.753213097e-09)
(0 0 -4.753213097e-09)
(0 0 -4.753213097e-09)
(0 0 -4.753213097e-09)
(0 0 -4.753213097e-09)
(0 0 -4.753213097e-09)
(0 0 -4.753213097e-09)
(0 0 -4.753213096e-09)
(0 0 -4.753213096e-09)
(0 0 -4.753213096e-09)
(0 0 -4.753213096e-09)
(0 0 -4.753213095e-09)
(0 0 -4.753213095e-09)
(0 0 -4.753213095e-09)
(0 0 -4.753213094e-09)
(0 0 -4.753213094e-09)
(0 0 -4.753213093e-09)
(0 0 -4.753213093e-09)
(0 0 -4.753213092e-09)
(0 0 -4.753213091e-09)
(0 0 -4.753213091e-09)
(0 0 -4.75321309e-09)
(0 0 -4.753213089e-09)
(0 0 -4.753213089e-09)
(0 0 -4.753213088e-09)
(0 0 -4.753213087e-09)
(0 0 -4.753213086e-09)
(0 0 -4.753213085e-09)
(0 0 -4.753213085e-09)
(0 0 -4.753213084e-09)
(0 0 -4.753213083e-09)
(0 0 -4.753213082e-09)
(0 0 -4.753213081e-09)
(0 0 -4.75321308e-09)
(0 0 -4.753213079e-09)
(0 0 -4.753213078e-09)
(0 0 -4.753213076e-09)
(0 0 -4.753213075e-09)
(0 0 -4.753213074e-09)
(0 0 -4.753213073e-09)
(0 0 -4.753213072e-09)
(0 0 -4.753213071e-09)
(0 0 -4.753213069e-09)
(0 0 -4.753213068e-09)
(0 0 -4.753213067e-09)
(0 0 -4.753213065e-09)
(0 0 -4.753213064e-09)
(0 0 -4.753213063e-09)
(0 0 -4.753213061e-09)
(0 0 -4.75321306e-09)
(0 0 -4.753213058e-09)
(0 0 -4.753213057e-09)
(0 0 -4.753213055e-09)
(0 0 -4.753213054e-09)
(0 0 -4.753213052e-09)
(0 0 -4.753213051e-09)
(0 0 -4.753213049e-09)
(0 0 -4.753213048e-09)
(0 0 -4.753213046e-09)
(0 0 -4.753213044e-09)
(0 0 -4.753213043e-09)
(0 0 -4.753213041e-09)
(0 0 -4.753213039e-09)
(0 0 -4.753213038e-09)
(0 0 -4.753213036e-09)
(0 0 -4.753213034e-09)
(0 0 -4.753213033e-09)
(0 0 -4.753213031e-09)
(0 0 -4.753213029e-09)
(0 0 -4.753213027e-09)
(0 0 -4.753213026e-09)
(0 0 -4.753213024e-09)
(0 0 -4.753213022e-09)
(0 0 -4.75321302e-09)
(0 0 -4.753213018e-09)
(0 0 -4.753213017e-09)
(0 0 -4.753213015e-09)
(0 0 -4.753213013e-09)
(0 0 -4.753213011e-09)
(0 0 -4.753213009e-09)
(0 0 -4.753213007e-09)
(0 0 -4.753213006e-09)
(0 0 -4.753213004e-09)
(0 0 -4.753213002e-09)
(0 0 -4.753213e-09)
(0 0 -4.753212998e-09)
(0 0 -4.753212996e-09)
(0 0 -4.753212994e-09)
(0 0 -4.753212993e-09)
(0 0 -4.753212991e-09)
(0 0 -4.753212989e-09)
(0 0 -4.753212987e-09)
(0 0 -4.753212985e-09)
(0 0 -4.753212983e-09)
(0 0 -4.753212981e-09)
(0 0 -4.75321298e-09)
(0 0 -4.753212978e-09)
(0 0 -4.753212976e-09)
(0 0 -4.753212974e-09)
(0 0 -4.753212972e-09)
(0 0 -4.75321297e-09)
(0 0 -4.753212969e-09)
(0 0 -4.753212967e-09)
(0 0 -4.753212965e-09)
(0 0 -4.753212963e-09)
(0 0 -4.753212961e-09)
(0 0 -4.75321296e-09)
(0 0 -4.753212958e-09)
(0 0 -4.753212956e-09)
(0 0 -4.753212954e-09)
(0 0 -4.753212953e-09)
(0 0 -4.753212951e-09)
(0 0 -4.753212949e-09)
(0 0 -4.753212948e-09)
(0 0 -4.753212946e-09)
(0 0 -4.753212944e-09)
(0 0 -4.753212943e-09)
(0 0 -4.753212941e-09)
(0 0 -4.75321294e-09)
(0 0 -4.753212938e-09)
(0 0 -4.753212936e-09)
(0 0 -4.753212935e-09)
(0 0 -4.753212933e-09)
(0 0 -4.753212932e-09)
(0 0 -4.75321293e-09)
(0 0 -4.753212929e-09)
(0 0 -4.753212928e-09)
(0 0 -4.753212926e-09)
(0 0 -4.753212925e-09)
(0 0 -4.753212923e-09)
(0 0 -4.753212922e-09)
(0 0 -4.753212921e-09)
(0 0 -4.753212919e-09)
(0 0 -4.753212918e-09)