/*--------------------------------*- C++ -*----------------------------------*\
| =========                 |                                                 |
| \\      /  F ield         | OpenFOAM: The Open Source CFD Toolbox           |
|  \\    /   O peration     | Version:  2406                                  |
|   \\  /    A nd           | Website:  www.openfoam.com                      |
|    \\/     M anipulation  |                                                 |
\*---------------------------------------------------------------------------*/
FoamFile
{
    version     2.0;
    format      ascii;
    arch        "LSB;label=32;scalar=64";
    class       surfaceScalarField;
    location    "159";
    object      phi;
}
// * * * * * * * * * * * * * * * * * * * * * * * * * * * * * * * * * * * * * //

dimensions      [0 3 -1 0 0 0 0];

oriented        oriented;

internalField   nonuniform List<scalar> 
5008
(
-4.75321290303e-09
-4.7532128433e-09
-4.75321279436e-09
-4.75321275094e-09
-4.7532127117e-09
-4.75321267598e-09
-4.75321264341e-09
-4.75321261368e-09
-4.75321258654e-09
-4.75321256179e-09
-4.75321253927e-09
-4.75321251879e-09
-4.75321250017e-09
-4.7532124833e-09
-4.75321246803e-09
-4.75321245424e-09
-4.75321244186e-09
-4.75321243076e-09
-4.75321242088e-09
-4.75321241214e-09
-4.7532124045e-09
-4.75321239786e-09
-4.75321239221e-09
-4.75321238748e-09
-4.75321238365e-09
-4.75321238067e-09
-4.75321237851e-09
-4.75321237716e-09
-4.75321237656e-09
-4.75321237672e-09
-4.75321237761e-09
-4.75321237921e-09
-4.7532123815e-09
-4.75321238448e-09
-4.75321238812e-09
-4.75321239241e-09
-4.75321239735e-09
-4.75321240291e-09
-4.75321240909e-09
-4.75321241587e-09
-4.75321242325e-09
-4.75321243122e-09
-4.75321243976e-09
-4.75321244886e-09
-4.7532124585e-09
-4.75321246869e-09
-4.7532124794e-09
-4.75321249063e-09
-4.75321250235e-09
-4.75321251455e-09
-4.75321252722e-09
-4.75321254035e-09
-4.7532125539e-09
-4.75321256788e-09
-4.75321258225e-09
-4.753212597e-09
-4.75321261211e-09
-4.75321262755e-09
-4.75321264331e-09
-4.75321265936e-09
-4.75321267568e-09
-4.75321269225e-09
-4.75321270903e-09
-4.753212726e-09
-4.75321274314e-09
-4.75321276042e-09
-4.7532127778e-09
-4.75321279527e-09
-4.75321281278e-09
-4.75321283032e-09
-4.75321284785e-09
-4.75321286533e-09
-4.75321288274e-09
-4.75321290005e-09
-4.75321291723e-09
-4.75321293423e-09
-4.75321295104e-09
-4.75321296762e-09
-4.75321298393e-09
-4.75321299996e-09
-4.75321301566e-09
-4.75321303101e-09
-4.75321304597e-09
-4.75321306052e-09
-4.75321307463e-09
-4.75321308827e-09
-4.75321310142e-09
-4.75321311404e-09
-4.75321312612e-09
-4.75321313763e-09
-4.75321314855e-09
-4.75321315885e-09
-4.75321316853e-09
-4.75321317755e-09
-4.75321318591e-09
-4.75321319359e-09
-4.75321320057e-09
-4.75321320685e-09
-4.75321321241e-09
-4.75321321725e-09
-4.75321322136e-09
-4.75321322474e-09
-4.75321322739e-09
-4.7532132293e-09
-4.75321323048e-09
-4.75321323093e-09
-4.75321323066e-09
-4.75321322968e-09
-4.75321322799e-09
-4.75321322562e-09
-4.75321322256e-09
-4.75321321884e-09
-4.75321321448e-09
-4.75321320949e-09
-4.75321320389e-09
-4.75321319772e-09
-4.75321319099e-09
-4.75321318372e-09
-4.75321317596e-09
-4.75321316771e-09
-4.75321315903e-09
-4.75321314992e-09
-4.75321314044e-09
-4.7532131306e-09
-4.75321312045e-09
-4.75321311002e-09
-4.75321309935e-09
-4.75321308846e-09
-4.75321307741e-09
-4.75321306621e-09
-4.75321305492e-09
-4.75321304356e-09
-4.75321303217e-09
-4.7532130208e-09
-4.75321300947e-09
-4.75321299822e-09
-4.75321298709e-09
-4.75321297611e-09
-4.75321296531e-09
-4.75321295473e-09
-4.7532129444e-09
-4.75321293434e-09
-4.7532129246e-09
-4.7532129152e-09
-4.75321290616e-09
-4.7532128975e-09
-4.75321288927e-09
-4.75321288147e-09
-4.75321287412e-09
-4.75321286726e-09
-4.75321286088e-09
-4.75321285502e-09
-4.75321284968e-09
-4.75321284488e-09
-4.75321284062e-09
-4.75321283692e-09
-4.75321283378e-09
-4.75321283121e-09
-4.7532128292e-09
-4.75321282777e-09
-4.75321282691e-09
-4.75321282661e-09
-4.75321282687e-09
-4.7532128277e-09
-4.75321282907e-09
-4.75321283099e-09
-4.75321283343e-09
-4.75321283639e-09
-4.75321283985e-09
-4.7532128438e-09
-4.75321284822e-09
-4.7532128531e-09
-4.7532128584e-09
-4.75321286413e-09
-4.75321287024e-09
-4.75321287673e-09
-4.75321288356e-09
-4.75321289072e-09
-4.75321289817e-09
-4.7532129059e-09
-4.75321291388e-09
-4.75321292208e-09
-4.75321293047e-09
-4.75321293903e-09
-4.75321294774e-09
-4.75321295655e-09
-4.75321296546e-09
-4.75321297443e-09
-4.75321298342e-09
-4.75321299243e-09
-4.75321300142e-09
-4.75321301036e-09
-4.75321301923e-09
-4.753213028e-09
-4.75321303665e-09
-4.75321304516e-09
-4.7532130535e-09
-4.75321306165e-09
-4.75321306959e-09
-4.75321307729e-09
-4.75321308475e-09
-4.75321309193e-09
-4.75321309883e-09
-4.75321310542e-09
-4.75321311169e-09
-4.75321311762e-09
-4.75321312321e-09
-4.75321312843e-09
-4.75321313328e-09
-4.75321313774e-09
-4.75321314182e-09
-4.75321314549e-09
-4.75321314876e-09
-4.75321315161e-09
-4.75321315405e-09
-4.75321315607e-09
-4.75321315767e-09
-4.75321315884e-09
-4.75321315959e-09
-4.75321315992e-09
-4.75321315983e-09
-4.75321315933e-09
-4.75321315841e-09
-4.75321315709e-09
-4.75321315537e-09
-4.75321315326e-09
-4.75321315076e-09
-4.75321314789e-09
-4.75321314465e-09
-4.75321314106e-09
-4.75321313713e-09
-4.75321313287e-09
-4.75321312829e-09
-4.7532131234e-09
-4.75321311823e-09
-4.75321311278e-09
-4.75321310707e-09
-4.75321310111e-09
-4.75321309492e-09
-4.75321308853e-09
-4.75321308193e-09
-4.75321307515e-09
-4.75321306822e-09
-4.75321306113e-09
-4.75321305392e-09
-4.7532130466e-09
-4.75321303918e-09
-4.75321303169e-09
-4.75321302414e-09
-4.75321301654e-09
-4.75321300893e-09
-4.75321300131e-09
-4.75321299369e-09
-4.75321298611e-09
-4.75321297857e-09
-4.75321297108e-09
-4.75321296368e-09
-4.75321295636e-09
-4.75321294915e-09
-4.75321294206e-09
-4.75321293511e-09
-4.7532129283e-09
-4.75321292166e-09
-4.7532129152e-09
-4.75321290892e-09
-4.75321290284e-09
-4.75321289698e-09
-4.75321289133e-09
-4.75321288592e-09
-4.75321288075e-09
-4.75321287583e-09
-4.75321287117e-09
-4.75321286678e-09
-4.75321286267e-09
-4.75321285883e-09
-4.75321285528e-09
-4.75321285202e-09
-4.75321284906e-09
-4.75321284641e-09
-4.75321284405e-09
-4.75321284201e-09
-4.75321284027e-09
-4.75321283884e-09
-4.75321283773e-09
-4.75321283693e-09
-4.75321283644e-09
-4.75321283626e-09
-4.7532128364e-09
-4.75321283684e-09
-4.75321283758e-09
-4.75321283863e-09
-4.75321283998e-09
-4.75321284163e-09
-4.75321284356e-09
-4.75321284578e-09
-4.75321284828e-09
-4.75321285105e-09
-4.75321285409e-09
-4.75321285739e-09
-4.75321286094e-09
-4.75321286474e-09
-4.75321286878e-09
-4.75321287305e-09
-4.75321287754e-09
-4.75321288224e-09
-4.75321288714e-09
-4.75321289224e-09
-4.75321289752e-09
-4.75321290297e-09
-4.75321290859e-09
-4.75321291437e-09
-4.75321292028e-09
-4.75321292633e-09
-4.7532129325e-09
-4.75321293878e-09
-4.75321294516e-09
-4.75321295163e-09
-4.75321295818e-09
-4.75321296479e-09
-4.75321297147e-09
-4.75321297818e-09
-4.75321298493e-09
-4.75321299171e-09
-4.75321299849e-09
-4.75321300528e-09
-4.75321301206e-09
-4.75321301882e-09
-4.75321302555e-09
-4.75321303223e-09
-4.75321303887e-09
-4.75321304544e-09
-4.75321305195e-09
-4.75321305837e-09
-4.7532130647e-09
-4.75321307094e-09
-4.75321307706e-09
-4.75321308307e-09
-4.75321308896e-09
-4.75321309471e-09
-4.75321310031e-09
-4.75321310577e-09
-4.75321311107e-09
-4.75321311621e-09
-4.75321312117e-09
-4.75321312596e-09
-4.75321313056e-09
-4.75321313498e-09
-4.7532131392e-09
-4.75321314321e-09
-4.75321314703e-09
-4.75321315063e-09
-4.75321315401e-09
-4.75321315718e-09
-4.75321316013e-09
-4.75321316285e-09
-4.75321316534e-09
-4.7532131676e-09
-4.75321316963e-09
-4.75321317142e-09
-4.75321317298e-09
-4.7532131743e-09
-4.75321317537e-09
-4.75321317621e-09
-4.75321317681e-09
-4.75321317717e-09
-4.75321317729e-09
-4.75321317717e-09
-4.75321317681e-09
-4.75321317622e-09
-4.75321317539e-09
-4.75321317433e-09
-4.75321317303e-09
-4.75321317151e-09
-4.75321316976e-09
-4.75321316779e-09
-4.7532131656e-09
-4.7532131632e-09
-4.75321316058e-09
-4.75321315776e-09
-4.75321315473e-09
-4.7532131515e-09
-4.75321314808e-09
-4.75321314447e-09
-4.75321314067e-09
-4.75321313669e-09
-4.75321313254e-09
-4.75321312823e-09
-4.75321312375e-09
-4.75321311911e-09
-4.75321311433e-09
-4.7532131094e-09
-4.75321310433e-09
-4.75321309913e-09
-4.75321309381e-09
-4.75321308837e-09
-4.75321308283e-09
-4.75321307717e-09
-4.75321307143e-09
-4.75321306559e-09
-4.75321305967e-09
-4.75321305368e-09
-4.75321304761e-09
-4.75321304149e-09
-4.75321303532e-09
-4.7532130291e-09
-4.75321302284e-09
-4.75321301655e-09
-4.75321301024e-09
-4.75321300391e-09
-4.75321299757e-09
-4.75321299123e-09
-4.75321298489e-09
-4.75321297857e-09
-4.75321297227e-09
-4.75321296599e-09
-4.75321295975e-09
-4.75321295355e-09
-4.7532129474e-09
-4.7532129413e-09
-4.75321293526e-09
-4.75321292929e-09
-4.75321292339e-09
-4.75321291757e-09
-4.75321291184e-09
-4.7532129062e-09
-4.75321290066e-09
-4.75321289522e-09
-4.75321288989e-09
-4.75321288468e-09
-4.75321287958e-09
-4.75321287462e-09
-4.75321286978e-09
-4.75321286507e-09
-4.75321286051e-09
-4.75321285609e-09
-4.75321285182e-09
-4.7532128477e-09
-4.75321284374e-09
-4.75321283994e-09
-4.75321283631e-09
-4.75321283284e-09
-4.75321282954e-09
-4.75321282641e-09
-4.75321282347e-09
-4.7532128207e-09
-4.75321281811e-09
-4.75321281571e-09
-4.75321281349e-09
-4.75321281146e-09
-4.75321280962e-09
-4.75321280797e-09
-4.75321280651e-09
-4.75321280524e-09
-4.75321280417e-09
-4.7532128033e-09
-4.75321280262e-09
-4.75321280213e-09
-4.75321280184e-09
-4.75321280174e-09
-4.75321280184e-09
-4.75321280214e-09
-4.75321280263e-09
-4.75321280331e-09
-4.75321280418e-09
-4.75321280525e-09
-4.7532128065e-09
-4.75321280794e-09
-4.75321280957e-09
-4.75321281138e-09
-4.75321281338e-09
-4.75321281555e-09
-4.75321281791e-09
-4.75321282043e-09
-4.75321282313e-09
-4.753212826e-09
-4.75321282904e-09
-4.75321283224e-09
-4.7532128356e-09
-4.75321283912e-09
-4.75321284279e-09
-4.75321284661e-09
-4.75321285057e-09
-4.75321285468e-09
-4.75321285893e-09
-4.75321286331e-09
-4.75321286782e-09
-4.75321287245e-09
-4.75321287721e-09
-4.75321288208e-09
-4.75321288707e-09
-4.75321289216e-09
-4.75321289735e-09
-4.75321290265e-09
-4.75321290803e-09
-4.75321291351e-09
-4.75321291907e-09
-4.7532129247e-09
-4.75321293041e-09
-4.75321293619e-09
-4.75321294203e-09
-4.75321294793e-09
-4.75321295388e-09
-4.75321295987e-09
-4.75321296591e-09
-4.75321297199e-09
-4.75321297809e-09
-4.75321298423e-09
-4.75321299038e-09
-4.75321299655e-09
-4.75321300273e-09
-4.75321300892e-09
-4.7532130151e-09
-4.75321302128e-09
-4.75321302745e-09
-4.7532130336e-09
-4.75321303973e-09
-4.75321304584e-09
-4.75321305191e-09
-4.75321305795e-09
-4.75321306395e-09
-4.7532130699e-09
-4.7532130758e-09
-4.75321308165e-09
-4.75321308743e-09
-4.75321309315e-09
-4.7532130988e-09
-4.75321310438e-09
-4.75321310987e-09
-4.75321311529e-09
-4.75321312062e-09
-4.75321312585e-09
-4.75321313099e-09
-4.75321313603e-09
-4.75321314097e-09
-4.7532131458e-09
-4.75321315052e-09
-4.75321315512e-09
-4.75321315961e-09
-4.75321316397e-09
-4.75321316821e-09
-4.75321317232e-09
-4.7532131763e-09
-4.75321318014e-09
-4.75321318385e-09
-4.75321318742e-09
-4.75321319085e-09
-4.75321319413e-09
-4.75321319726e-09
-4.75321320025e-09
-4.75321320308e-09
-4.75321320576e-09
-4.75321320828e-09
-4.75321321064e-09
-4.75321321285e-09
-4.7532132149e-09
-4.75321321678e-09
-4.7532132185e-09
-4.75321322006e-09
-4.75321322145e-09
-4.75321322267e-09
-4.75321322373e-09
-4.75321322462e-09
-4.75321322534e-09
-4.75321322589e-09
-4.75321322627e-09
-4.75321322648e-09
-4.75321322653e-09
-4.75321322641e-09
-4.75321322611e-09
-4.75321322565e-09
-4.75321322502e-09
-4.75321322423e-09
-4.75321322327e-09
-4.75321322214e-09
-4.75321322084e-09
-4.75321321939e-09
-4.75321321777e-09
-4.75321321599e-09
-4.75321321405e-09
-4.75321321195e-09
-4.7532132097e-09
-4.75321320729e-09
-4.75321320473e-09
-4.75321320201e-09
-4.75321319915e-09
-4.75321319614e-09
-4.75321319299e-09
-4.75321318969e-09
-4.75321318626e-09
-4.75321318269e-09
-4.75321317898e-09
-4.75321317514e-09
-4.75321317117e-09
-4.75321316708e-09
-4.75321316286e-09
-4.75321315852e-09
-4.75321315407e-09
-4.7532131495e-09
-4.75321314482e-09
-4.75321314003e-09
-4.75321313514e-09
-4.75321313015e-09
-4.75321312506e-09
-4.75321311988e-09
-4.7532131146e-09
-4.75321310924e-09
-4.7532131038e-09
-4.75321309828e-09
-4.75321309269e-09
-4.75321308702e-09
-4.75321308128e-09
-4.75321307549e-09
-4.75321306963e-09
-4.75321306372e-09
-4.75321305775e-09
-4.75321305174e-09
-4.75321304568e-09
-4.75321303959e-09
-4.75321303346e-09
-4.75321302729e-09
-4.7532130211e-09
-4.75321301489e-09
-4.75321300866e-09
-4.75321300241e-09
-4.75321299616e-09
-4.75321298989e-09
-4.75321298362e-09
-4.75321297736e-09
-4.7532129711e-09
-4.75321296485e-09
-4.75321295861e-09
-4.75321295239e-09
-4.7532129462e-09
-4.75321294003e-09
-4.75321293388e-09
-4.75321292778e-09
-4.75321292171e-09
-4.75321291568e-09
-4.75321290969e-09
-4.75321290376e-09
-4.75321289787e-09
-4.75321289205e-09
-4.75321288628e-09
-4.75321288058e-09
-4.75321287495e-09
-4.75321286938e-09
-4.75321286389e-09
-4.75321285848e-09
-4.75321285315e-09
-4.7532128479e-09
-4.75321284274e-09
-4.75321283768e-09
-4.7532128327e-09
-4.75321282783e-09
-4.75321282305e-09
-4.75321281837e-09
-4.75321281381e-09
-4.75321280935e-09
-4.753212805e-09
-4.75321280076e-09
-4.75321279664e-09
-4.75321279264e-09
-4.75321278877e-09
-4.75321278501e-09
-4.75321278138e-09
-4.75321277788e-09
-4.75321277451e-09
-4.75321277127e-09
-4.75321276817e-09
-4.7532127652e-09
-4.75321276237e-09
-4.75321275968e-09
-4.75321275713e-09
-4.75321275472e-09
-4.75321275245e-09
-4.75321275033e-09
-4.75321274836e-09
-4.75321274653e-09
-4.75321274485e-09
-4.75321274333e-09
-4.75321274195e-09
-4.75321274072e-09
-4.75321273965e-09
-4.75321273872e-09
-4.75321273795e-09
-4.75321273734e-09
-4.75321273687e-09
-4.75321273656e-09
-4.75321273641e-09
-4.75321273641e-09
-4.75321273656e-09
-4.75321273687e-09
-4.75321273733e-09
-4.75321273794e-09
-4.75321273871e-09
-4.75321273963e-09
-4.7532127407e-09
-4.75321274192e-09
-4.75321274329e-09
-4.75321274482e-09
-4.75321274649e-09
-4.75321274831e-09
-4.75321275028e-09
-4.75321275239e-09
-4.75321275465e-09
-4.75321275705e-09
-4.75321275959e-09
-4.75321276227e-09
-4.75321276509e-09
-4.75321276805e-09
-4.75321277115e-09
-4.75321277438e-09
-4.75321277774e-09
-4.75321278123e-09
-4.75321278485e-09
-4.7532127886e-09
-4.75321279247e-09
-4.75321279646e-09
-4.75321280057e-09
-4.7532128048e-09
-4.75321280914e-09
-4.7532128136e-09
-4.75321281817e-09
-4.75321282284e-09
-4.75321282762e-09
-4.75321283251e-09
-4.75321283749e-09
-4.75321284257e-09
-4.75321284775e-09
-4.75321285301e-09
-4.75321285837e-09
-4.75321286381e-09
-4.75321286933e-09
-4.75321287494e-09
-4.75321288062e-09
-4.75321288638e-09
-4.7532128922e-09
-4.75321289809e-09
-4.75321290405e-09
-4.75321291007e-09
-4.75321291615e-09
-4.75321292228e-09
-4.75321292847e-09
-4.7532129347e-09
-4.75321294098e-09
-4.7532129473e-09
-4.75321295366e-09
-4.75321296005e-09
-4.75321296647e-09
-4.75321297293e-09
-4.7532129794e-09
-4.7532129859e-09
-4.75321299242e-09
-4.75321299895e-09
-4.7532130055e-09
-4.75321301205e-09
-4.7532130186e-09
-4.75321302516e-09
-4.75321303172e-09
-4.75321303827e-09
-4.75321304481e-09
-4.75321305133e-09
-4.75321305784e-09
-4.75321306434e-09
-4.75321307081e-09
-4.75321307725e-09
-4.75321308367e-09
-4.75321309005e-09
-4.7532130964e-09
-4.75321310271e-09
-4.75321310897e-09
-4.75321311519e-09
-4.75321312137e-09
-4.75321312749e-09
-4.75321313355e-09
-4.75321313956e-09
-4.75321314551e-09
-4.75321315139e-09
-4.75321315721e-09
-4.75321316296e-09
-4.75321316863e-09
-4.75321317423e-09
-4.75321317975e-09
-4.75321318519e-09
-4.75321319055e-09
-4.75321319582e-09
-4.753213201e-09
-4.75321320609e-09
-4.75321321108e-09
-4.75321321598e-09
-4.75321322078e-09
-4.75321322547e-09
-4.75321323007e-09
-4.75321323456e-09
-4.75321323893e-09
-4.7532132432e-09
-4.75321324736e-09
-4.7532132514e-09
-4.75321325532e-09
-4.75321325913e-09
-4.75321326282e-09
-4.75321326638e-09
-4.75321326982e-09
-4.75321327313e-09
-4.75321327632e-09
-4.75321327937e-09
-4.7532132823e-09
-4.7532132851e-09
-4.75321328776e-09
-4.75321329028e-09
-4.75321329268e-09
-4.75321329493e-09
-4.75321329704e-09
-4.75321329902e-09
-4.75321330086e-09
-4.75321330255e-09
-4.75321330411e-09
-4.75321330552e-09
-4.75321330678e-09
-4.75321330791e-09
-4.75321330889e-09
-4.75321330972e-09
-4.75321331041e-09
-4.75321331095e-09
-4.75321331135e-09
-4.7532133116e-09
-4.7532133117e-09
-4.75321331166e-09
-4.75321331146e-09
-4.75321331113e-09
-4.75321331064e-09
-4.75321331001e-09
-4.75321330924e-09
-4.75321330832e-09
-4.75321330725e-09
-4.75321330604e-09
-4.75321330468e-09
-4.75321330318e-09
-4.75321330153e-09
-4.75321329975e-09
-4.75321329782e-09
-4.75321329575e-09
-4.75321329354e-09
-4.75321329119e-09
-4.7532132887e-09
-4.75321328608e-09
-4.75321328332e-09
-4.75321328043e-09
-4.7532132774e-09
-4.75321327424e-09
-4.75321327095e-09
-4.75321326753e-09
-4.75321326398e-09
-4.75321326031e-09
-4.75321325651e-09
-4.75321325259e-09
-4.75321324855e-09
-4.75321324439e-09
-4.75321324011e-09
-4.75321323571e-09
-4.75321323121e-09
-4.75321322659e-09
-4.75321322186e-09
-4.75321321702e-09
-4.75321321207e-09
-4.75321320703e-09
-4.75321320188e-09
-4.75321319663e-09
-4.75321319129e-09
-4.75321318585e-09
-4.75321318032e-09
-4.7532131747e-09
-4.75321316899e-09
-4.7532131632e-09
-4.75321315732e-09
-4.75321315137e-09
-4.75321314534e-09
-4.75321313923e-09
-4.75321313305e-09
-4.75321312681e-09
-4.75321312049e-09
-4.75321311412e-09
-4.75321310768e-09
-4.75321310118e-09
-4.75321309463e-09
-4.75321308802e-09
-4.75321308137e-09
-4.75321307466e-09
-4.75321306792e-09
-4.75321306113e-09
-4.7532130543e-09
-4.75321304744e-09
-4.75321304054e-09
-4.75321303362e-09
-4.75321302667e-09
-4.75321301969e-09
-4.7532130127e-09
-4.75321300568e-09
-4.75321299866e-09
-4.75321299161e-09
-4.75321298457e-09
-4.75321297751e-09
-4.75321297045e-09
-4.75321296339e-09
-4.75321295634e-09
-4.75321294929e-09
-4.75321294225e-09
-4.75321293522e-09
-4.75321292821e-09
-4.75321292121e-09
-4.75321291424e-09
-4.75321290728e-09
-4.75321290036e-09
-4.75321289346e-09
-4.7532128866e-09
-4.75321287977e-09
-4.75321287299e-09
-4.75321286624e-09
-4.75321285953e-09
-4.75321285287e-09
-4.75321284627e-09
-4.75321283971e-09
-4.75321283321e-09
-4.75321282676e-09
-4.75321282038e-09
-4.75321281406e-09
-4.7532128078e-09
-4.75321280162e-09
-4.7532127955e-09
-4.75321278946e-09
-4.75321278349e-09
-4.7532127776e-09
-4.75321277179e-09
-4.75321276607e-09
-4.75321276043e-09
-4.75321275487e-09
-4.75321274941e-09
-4.75321274404e-09
-4.75321273877e-09
-4.75321273359e-09
-4.75321272851e-09
-4.75321272353e-09
-4.75321271866e-09
-4.75321271389e-09
-4.75321270922e-09
-4.75321270467e-09
-4.75321270022e-09
-4.75321269589e-09
-4.75321269168e-09
-4.75321268758e-09
-4.7532126836e-09
-4.75321267974e-09
-4.753212676e-09
-4.75321267238e-09
-4.75321266888e-09
-4.75321266552e-09
-4.75321266228e-09
-4.75321265916e-09
-4.75321265618e-09
-4.75321265333e-09
-4.75321265061e-09
-4.75321264803e-09
-4.75321264558e-09
-4.75321264326e-09
-4.75321264108e-09
-4.75321263904e-09
-4.75321263714e-09
-4.75321263538e-09
-4.75321263376e-09
-4.75321263227e-09
-4.75321263093e-09
-4.75321262973e-09
-4.75321262868e-09
-4.75321262777e-09
-4.753212627e-09
-4.75321262637e-09
-4.75321262589e-09
-4.75321262555e-09
-4.75321262536e-09
-4.75321262532e-09
-4.75321262541e-09
-4.75321262566e-09
-4.75321262605e-09
-4.75321262658e-09
-4.75321262726e-09
-4.75321262808e-09
-4.75321262905e-09
-4.75321263016e-09
-4.75321263142e-09
-4.75321263282e-09
-4.75321263436e-09
-4.75321263605e-09
-4.75321263787e-09
-4.75321263984e-09
-4.75321264195e-09
-4.7532126442e-09
-4.75321264659e-09
-4.75321264912e-09
-4.75321265179e-09
-4.75321265459e-09
-4.75321265753e-09
-4.75321266061e-09
-4.75321266381e-09
-4.75321266715e-09
-4.75321267063e-09
-4.75321267423e-09
-4.75321267796e-09
-4.75321268182e-09
-4.7532126858e-09
-4.75321268991e-09
-4.75321269415e-09
-4.7532126985e-09
-4.75321270298e-09
-4.75321270758e-09
-4.75321271229e-09
-4.75321271712e-09
-4.75321272206e-09
-4.75321272712e-09
-4.75321273228e-09
-4.75321273756e-09
-4.75321274294e-09
-4.75321274843e-09
-4.75321275402e-09
-4.75321275971e-09
-4.7532127655e-09
-4.75321277138e-09
-4.75321277736e-09
-4.75321278344e-09
-4.7532127896e-09
-4.75321279586e-09
-4.75321280219e-09
-4.75321280862e-09
-4.75321281512e-09
-4.75321282171e-09
-4.75321282837e-09
-4.75321283511e-09
-4.75321284191e-09
-4.75321284879e-09
-4.75321285574e-09
-4.75321286275e-09
-4.75321286982e-09
-4.75321287696e-09
-4.75321288415e-09
-4.7532128914e-09
-4.7532128987e-09
-4.75321290604e-09
-4.75321291344e-09
-4.75321292088e-09
-4.75321292837e-09
-4.75321293589e-09
-4.75321294345e-09
-4.75321295104e-09
-4.75321295867e-09
-4.75321296632e-09
-4.753212974e-09
-4.75321298171e-09
-4.75321298943e-09
-4.75321299717e-09
-4.75321300493e-09
-4.7532130127e-09
-4.75321302048e-09
-4.75321302827e-09
-4.75321303606e-09
-4.75321304385e-09
-4.75321305164e-09
-4.75321305943e-09
-4.75321306721e-09
-4.75321307499e-09
-4.75321308275e-09
-4.75321309049e-09
-4.75321309822e-09
-4.75321310593e-09
-4.75321311362e-09
-4.75321312128e-09
-4.75321312891e-09
-4.75321313651e-09
-4.75321314408e-09
-4.75321315161e-09
-4.7532131591e-09
-4.75321316655e-09
-4.75321317396e-09
-4.75321318132e-09
-4.75321318863e-09
-4.75321319589e-09
-4.75321320309e-09
-4.75321321024e-09
-4.75321321733e-09
-4.75321322436e-09
-4.75321323132e-09
-4.75321323822e-09
-4.75321324505e-09
-4.7532132518e-09
-4.75321325848e-09
-4.75321326509e-09
-4.75321327162e-09
-4.75321327806e-09
-4.75321328443e-09
-4.75321329071e-09
-4.7532132969e-09
-4.753213303e-09
-4.75321330901e-09
-4.75321331492e-09
-4.75321332074e-09
-4.75321332646e-09
-4.75321333209e-09
-4.75321333761e-09
-4.75321334302e-09
-4.75321334833e-09
-4.75321335354e-09
-4.75321335863e-09
-4.75321336361e-09
-4.75321336848e-09
-4.75321337323e-09
-4.75321337787e-09
-4.75321338239e-09
-4.75321338679e-09
-4.75321339107e-09
-4.75321339522e-09
-4.75321339926e-09
-4.75321340316e-09
-4.75321340694e-09
-4.75321341059e-09
-4.75321341411e-09
-4.7532134175e-09
-4.75321342076e-09
-4.75321342388e-09
-4.75321342687e-09
-4.75321342972e-09
-4.75321343244e-09
-4.75321343501e-09
-4.75321343745e-09
-4.75321343975e-09
-4.75321344191e-09
-4.75321344393e-09
-4.7532134458e-09
-4.75321344754e-09
-4.75321344912e-09
-4.75321345057e-09
-4.75321345187e-09
-4.75321345302e-09
-4.75321345403e-09
-4.75321345489e-09
-4.7532134556e-09
-4.75321345617e-09
-4.75321345659e-09
-4.75321345686e-09
-4.75321345699e-09
-4.75321345696e-09
-4.75321345679e-09
-4.75321345647e-09
-4.753213456e-09
-4.75321345538e-09
-4.75321345462e-09
-4.7532134537e-09
-4.75321345264e-09
-4.75321345143e-09
-4.75321345007e-09
-4.75321344856e-09
-4.75321344691e-09
-4.75321344511e-09
-4.75321344317e-09
-4.75321344108e-09
-4.75321343884e-09
-4.75321343646e-09
-4.75321343394e-09
-4.75321343127e-09
-4.75321342846e-09
-4.75321342551e-09
-4.75321342241e-09
-4.75321341918e-09
-4.75321341581e-09
-4.75321341229e-09
-4.75321340865e-09
-4.75321340486e-09
-4.75321340094e-09
-4.75321339689e-09
-4.7532133927e-09
-4.75321338838e-09
-4.75321338393e-09
-4.75321337935e-09
-4.75321337464e-09
-4.75321336981e-09
-4.75321336485e-09
-4.75321335977e-09
-4.75321335456e-09
-4.75321334923e-09
-4.75321334379e-09
-4.75321333822e-09
-4.75321333254e-09
-4.75321332675e-09
-4.75321332084e-09
-4.75321331482e-09
-4.75321330869e-09
-4.75321330246e-09
-4.75321329612e-09
-4.75321328967e-09
-4.75321328312e-09
-4.75321327648e-09
-4.75321326973e-09
-4.75321326289e-09
-4.75321325595e-09
-4.75321324892e-09
-4.7532132418e-09
-4.7532132346e-09
-4.7532132273e-09
-4.75321321993e-09
-4.75321321247e-09
-4.75321320493e-09
-4.75321319732e-09
-4.75321318963e-09
-4.75321318187e-09
-4.75321317403e-09
-4.75321316613e-09
-4.75321315817e-09
-4.75321315014e-09
-4.75321314205e-09
-4.7532131339e-09
-4.75321312569e-09
-4.75321311743e-09
-4.75321310912e-09
-4.75321310076e-09
-4.75321309235e-09
-4.7532130839e-09
-4.75321307541e-09
-4.75321306688e-09
-4.75321305831e-09
-4.75321304971e-09
-4.75321304108e-09
-4.75321303242e-09
-4.75321302373e-09
-4.75321301502e-09
-4.75321300628e-09
-4.75321299753e-09
-4.75321298876e-09
-4.75321297998e-09
-4.75321297119e-09
-4.75321296239e-09
-4.75321295359e-09
-4.75321294478e-09
-4.75321293597e-09
-4.75321292716e-09
-4.75321291836e-09
-4.75321290957e-09
-4.75321290078e-09
-4.75321289201e-09
-4.75321288325e-09
-4.75321287451e-09
-4.7532128658e-09
-4.7532128571e-09
-4.75321284843e-09
-4.75321283979e-09
-4.75321283118e-09
-4.7532128226e-09
-4.75321281406e-09
-4.75321280556e-09
-4.75321279709e-09
-4.75321278868e-09
-4.7532127803e-09
-4.75321277198e-09
-4.7532127637e-09
-4.75321275548e-09
-4.75321274732e-09
-4.75321273921e-09
-4.75321273116e-09
-4.75321272318e-09
-4.75321271526e-09
-4.75321270741e-09
-4.75321269963e-09
-4.75321269192e-09
-4.75321268429e-09
-4.75321267673e-09
-4.75321266926e-09
-4.75321266186e-09
-4.75321265455e-09
-4.75321264732e-09
-4.75321264019e-09
-4.75321263314e-09
-4.75321262618e-09
-4.75321261932e-09
-4.75321261255e-09
-4.75321260589e-09
-4.75321259932e-09
-4.75321259286e-09
-4.7532125865e-09
-4.75321258024e-09
-4.7532125741e-09
-4.75321256806e-09
-4.75321256214e-09
-4.75321255633e-09
-4.75321255064e-09
-4.75321254506e-09
-4.7532125396e-09
-4.75321253427e-09
-4.75321252905e-09
-4.75321252396e-09
-4.753212519e-09
-4.75321251416e-09
-4.75321250945e-09
-4.75321250487e-09
-4.75321250042e-09
-4.7532124961e-09
-4.75321249192e-09
-4.75321248787e-09
-4.75321248396e-09
-4.75321248019e-09
-4.75321247655e-09
-4.75321247306e-09
-4.75321246971e-09
-4.7532124665e-09
-4.75321246343e-09
-4.75321246051e-09
-4.75321245774e-09
-4.75321245511e-09
-4.75321245262e-09
-4.75321245029e-09
-4.75321244811e-09
-4.75321244607e-09
-4.75321244419e-09
-4.75321244245e-09
-4.75321244087e-09
-4.75321243944e-09
-4.75321243816e-09
-4.75321243704e-09
-4.75321243607e-09
-4.75321243526e-09
-4.7532124346e-09
-4.75321243409e-09
-4.75321243375e-09
-4.75321243355e-09
-4.75321243352e-09
-4.75321243363e-09
-4.75321243391e-09
-4.75321243434e-09
-4.75321243493e-09
-4.75321243567e-09
-4.75321243658e-09
-4.75321243763e-09
-4.75321243885e-09
-4.75321244022e-09
-4.75321244174e-09
-4.75321244342e-09
-4.75321244526e-09
-4.75321244725e-09
-4.7532124494e-09
-4.7532124517e-09
-4.75321245415e-09
-4.75321245676e-09
-4.75321245952e-09
-4.75321246243e-09
-4.7532124655e-09
-4.75321246871e-09
-4.75321247208e-09
-4.75321247559e-09
-4.75321247926e-09
-4.75321248307e-09
-4.75321248703e-09
-4.75321249113e-09
-4.75321249538e-09
-4.75321249978e-09
-4.75321250431e-09
-4.75321250899e-09
-4.75321251381e-09
-4.75321251878e-09
-4.75321252387e-09
-4.75321252911e-09
-4.75321253449e-09
-4.75321253999e-09
-4.75321254564e-09
-4.75321255141e-09
-4.75321255732e-09
-4.75321256335e-09
-4.75321256952e-09
-4.75321257581e-09
-4.75321258222e-09
-4.75321258876e-09
-4.75321259542e-09
-4.75321260221e-09
-4.75321260911e-09
-4.75321261612e-09
-4.75321262326e-09
-4.7532126305e-09
-4.75321263786e-09
-4.75321264533e-09
-4.75321265291e-09
-4.75321266059e-09
-4.75321266838e-09
-4.75321267627e-09
-4.75321268426e-09
-4.75321269235e-09
-4.75321270053e-09
-4.75321270881e-09
-4.75321271718e-09
-4.75321272565e-09
-4.7532127342e-09
-4.75321274284e-09
-4.75321275156e-09
-4.75321276036e-09
-4.75321276925e-09
-4.75321277821e-09
-4.75321278724e-09
-4.75321279635e-09
-4.75321280553e-09
-4.75321281478e-09
-4.7532128241e-09
-4.75321283347e-09
-4.75321284291e-09
-4.75321285241e-09
-4.75321286197e-09
-4.75321287158e-09
-4.75321288124e-09
-4.75321289095e-09
-4.75321290071e-09
-4.75321291051e-09
-4.75321292036e-09
-4.75321293025e-09
-4.75321294017e-09
-4.75321295012e-09
-4.75321296011e-09
-4.75321297013e-09
-4.75321298018e-09
-4.75321299025e-09
-4.75321300034e-09
-4.75321301045e-09
-4.75321302058e-09
-4.75321303073e-09
-4.75321304088e-09
-4.75321305105e-09
-4.75321306122e-09
-4.75321307139e-09
-4.75321308157e-09
-4.75321309175e-09
-4.75321310192e-09
-4.75321311208e-09
-4.75321312224e-09
-4.75321313239e-09
-4.75321314252e-09
-4.75321315264e-09
-4.75321316273e-09
-4.75321317281e-09
-4.75321318286e-09
-4.75321319289e-09
-4.75321320288e-09
-4.75321321285e-09
-4.75321322277e-09
-4.75321323267e-09
-4.75321324252e-09
-4.75321325233e-09
-4.7532132621e-09
-4.75321327182e-09
-4.75321328149e-09
-4.75321329111e-09
-4.75321330067e-09
-4.75321331018e-09
-4.75321331963e-09
-4.75321332901e-09
-4.75321333834e-09
-4.75321334759e-09
-4.75321335678e-09
-4.7532133659e-09
-4.75321337494e-09
-4.75321338391e-09
-4.7532133928e-09
-4.75321340161e-09
-4.75321341033e-09
-4.75321341897e-09
-4.75321342753e-09
-4.75321343599e-09
-4.75321344436e-09
-4.75321345264e-09
-4.75321346083e-09
-4.75321346891e-09
-4.7532134769e-09
-4.75321348478e-09
-4.75321349256e-09
-4.75321350023e-09
-4.75321350779e-09
-4.75321351525e-09
-4.75321352259e-09
-4.75321352981e-09
-4.75321353692e-09
-4.75321354392e-09
-4.75321355079e-09
-4.75321355754e-09
-4.75321356417e-09
-4.75321357067e-09
-4.75321357705e-09
-4.7532135833e-09
-4.75321358941e-09
-4.7532135954e-09
-4.75321360125e-09
-4.75321360696e-09
-4.75321361254e-09
-4.75321361798e-09
-4.75321362329e-09
-4.75321362845e-09
-4.75321363346e-09
-4.75321363834e-09
-4.75321364307e-09
-4.75321364765e-09
-4.75321365208e-09
-4.75321365636e-09
-4.7532136605e-09
-4.75321366448e-09
-4.75321366831e-09
-4.75321367199e-09
-4.75321367551e-09
-4.75321367887e-09
-4.75321368208e-09
-4.75321368513e-09
-4.75321368802e-09
-4.75321369076e-09
-4.75321369333e-09
-4.75321369574e-09
-4.75321369798e-09
-4.75321370007e-09
-4.75321370199e-09
-4.75321370375e-09
-4.75321370534e-09
-4.75321370676e-09
-4.75321370803e-09
-4.75321370912e-09
-4.75321371005e-09
-4.75321371081e-09
-4.7532137114e-09
-4.75321371182e-09
-4.75321371208e-09
-4.75321371216e-09
-4.75321371208e-09
-4.75321371183e-09
-4.75321371141e-09
-4.75321371082e-09
-4.75321371006e-09
-4.75321370913e-09
-4.75321370803e-09
-4.75321370676e-09
-4.75321370532e-09
-4.75321370372e-09
-4.75321370194e-09