/*--------------------------------*- C++ -*----------------------------------*\
| =========                 |                                                 |
| \\      /  F ield         | OpenFOAM: The Open Source CFD Toolbox           |
|  \\    /   O peration     | Version:  2406                                  |
|   \\  /    A nd           | Website:  www.openfoam.com                      |
|    \\/     M anipulation  |                                                 |
\*---------------------------------------------------------------------------*/
FoamFile
{
    version     2.0;
    format      ascii;
    arch        "LSB;label=32;scalar=64";
    class       volScalarField;
    location    "159";
    object      theta;
}
// * * * * * * * * * * * * * * * * * * * * * * * * * * * * * * * * * * * * * //

dimensions      [0 0 0 0 0 0 0];

internalField   nonuniform List<scalar> 
5009
(
0.24249159798
0.240597875311
0.23813106112
0.235336620979
0.232347495505
0.229250231877
0.226104821035
0.222953842982
0.219827690483
0.216747935746
0.213729655563
0.210783102341
0.207914933194
0.205129126446
0.202427670643
0.199811085051
0.197278813907
0.194829525407
0.192461338425
0.190171994257
0.187958986395
0.185819658258
0.183751276384
0.181751084848
0.179816345309
0.177944366046
0.176132522605
0.174378272019
0.172679162166
0.171032837429
0.16943704158
0.167889618594
0.166388511928
0.164931762686
0.163517506998
0.162143972844
0.160809476527
0.15951241893
0.158251281662
0.157024623182
0.155831074954
0.154669337681
0.153538177647
0.152436423185
0.151362961296
0.150316734411
0.149296737314
0.148302014219
0.147331656002
0.146384797586
0.145460615466
0.144558325386
0.143677180139
0.142816467505
0.141975508305
0.141153654575
0.140350287847
0.139564817533
0.138796679405
0.138045334172
0.137310266133
0.136590981919
0.135887009307
0.135197896102
0.134523209091
0.133862533054
0.133215469833
0.132581637464
0.131960669344
0.131352213462
0.130755931666
0.13017149897
0.129598602909
0.129036942921
0.12848622977
0.127946184999
0.127416540414
0.126897037595
0.126387427434
0.125887469702
0.125396932632
0.124915592532
0.124443233414
0.123979646641
0.123524630602
0.12307799039
0.122639537509
0.122209089588
0.121786470116
0.121371508184
0.120964038246
0.120563899887
0.120170937607
0.119785000613
0.11940594262
0.119033621667
0.118667899937
0.118308643587
0.117955722587
0.117609010566
0.117268384669
0.11693372541
0.116604916549
0.116281844958
0.115964400502
0.115652475929
0.115345966751
0.11504477115
0.11474878987
0.114457926125
0.11417208551
0.113891175911
0.113615107423
0.113343792273
0.113077144742
0.112815081095
0.112557519509
0.112304380012
0.112055584415
0.111811056254
0.111570720733
0.111334504669
0.111102336439
0.110874145929
0.110649864485
0.110429424872
0.110212761222
0.109999808999
0.109790504955
0.109584787092
0.109382594623
0.109183867941
0.108988548582
0.108796579192
0.108607903496
0.10842246627
0.108240213311
0.108061091408
0.107885048319
0.107712032742
0.107541994293
0.107374883482
0.107210651691
0.107049251152
0.106890634926
0.106734756884
0.106581571686
0.106431034766
0.106283102312
0.106137731247
0.105994879219
0.105854504577
0.105716566363
0.105581024293
0.105447838744
0.105316970742
0.105188381945
0.105062034636
0.104937891704
0.104815916638
0.104696073513
0.104578326977
0.104462642245
0.104348985085
0.104237321808
0.10412761926
0.104019844811
0.103913966349
0.103809952266
0.103707771452
0.103607393287
0.103508787634
0.103411924827
0.103316775666
0.103223311412
0.103131503772
0.1030413249
0.102952747385
0.102865744247
0.102780288929
0.102696355288
0.102613917594
0.10253295052
0.102453429135
0.102375328904
0.102298625673
0.102223295672
0.102149315504
0.10207666214
0.102005312917
0.101935245528
0.10186643802
0.101798868789
0.101732516572
0.101667360445
0.101603379816
0.101540554423
0.101478864325
0.101418289903
0.101358811849
0.101300411166
0.101243069162
0.101186767447
0.101131487927
0.101077212799
0.101023924549
0.100971605947
0.100920240043
0.100869810163
0.100820299902
0.100771693127
0.100723973966
0.100677126809
0.100631136301
0.100585987341
0.100541665074
0.100498154894
0.100455442434
0.100413513568
0.1003723544
0.10033195127
0.100292290742
0.100253359608
0.100215144878
0.10017763378
0.100140813758
0.100104672466
0.100069197767
0.100034377729
0.100000200619
0.0999666549075
0.0999337292568
0.0999014125237
0.0998696937546
0.0998385621826
0.0998080072248
0.0997780184798
0.099748585724
0.09971969891
0.0996913481628
0.0996635237778
0.0996362162177
0.0996094161104
0.0995831142457
0.0995573015732
0.0995319691999
0.0995071083872
0.0994827105489
0.0994587672484
0.0994352701966
0.0994122112495
0.0993895824055
0.0993673758037
0.0993455837212
0.0993241985707
0.099303212899
0.0992826193839
0.099262410833
0.0992425801807
0.0992231204868
0.0992040249338
0.0991852868257
0.099166899585
0.0991488567515
0.0991311519802
0.0991137790391
0.0990967318074
0.0990800042739
0.0990635905349
0.0990474847925
0.0990316813527
0.0990161746239
0.0990009591147
0.0989860294329
0.098971380283
0.0989570064653
0.0989429028738
0.0989290644946
0.0989154864046
0.0989021637698
0.0988890918438
0.098876265966
0.0988636815607
0.098851334135
0.0988392192779
0.0988273326586
0.098815670025
0.0988042272027
0.0987930000934
0.0987819846733
0.0987711769926
0.0987605731733
0.0987501694084
0.0987399619609
0.0987299471619
0.09872012141
0.0987104811697
0.0987010229706
0.0986917434058
0.0986826391314
0.0986737068646
0.0986649433834
0.0986563455249
0.0986479101845
0.0986396343152
0.0986315149257
0.0986235490804
0.0986157338976
0.098608066549
0.0986005442588
0.0985931643023
0.0985859240052
0.0985788207432
0.09857185194
0.0985650150677
0.0985583076449
0.0985517272363
0.0985452714521
0.0985389379466
0.0985327244178
0.0985266286067
0.0985206482961
0.0985147813101
0.0985090255135
0.0985033788107
0.0984978391453
0.0984924044991
0.0984870728916
0.0984818423794
0.0984767110552
0.0984716770474
0.0984667385193
0.0984618936688
0.0984571407271
0.0984524779587
0.0984479036607
0.0984434161617
0.098439013822
0.0984346950323
0.0984304582136
0.0984263018166
0.0984222243209
0.0984182242345
0.0984143000936
0.0984104504618
0.0984066739297
0.0984029691143
0.0983993346585
0.098395769231
0.0983922715251
0.098388840259
0.0983854741748
0.0983821720383
0.0983789326387
0.0983757547877
0.0983726373194
0.0983695790902
0.0983665789776
0.0983636358804
0.0983607487182
0.098357916431
0.0983551379785
0.0983524123404
0.0983497385153
0.0983471155209
0.0983445423933
0.0983420181868
0.0983395419737
0.0983371128437
0.0983347299035
0.098332392277
0.0983300991044
0.0983278495422
0.0983256427629
0.0983234779546
0.0983213543207
0.0983192710797
0.0983172274648
0.0983152227239
0.0983132561188
0.0983113269256
0.0983094344338
0.0983075779465
0.0983057567799
0.0983039702633
0.0983022177386
0.09830049856
0.0982988120942
0.0982971577196
0.0982955348267
0.0982939428173
0.0982923811046
0.0982908491129
0.0982893462774
0.098287872044
0.0982864258692
0.0982850072197
0.0982836155723
0.0982822504138
0.0982809112406
0.0982795975587
0.0982783088836
0.0982770447398
0.0982758046608
0.0982745881893
0.0982733948762
0.0982722242811
0.0982710759722
0.0982699495255
0.0982688445253
0.0982677605638
0.0982666972406
0.0982656541635
0.0982646309471
0.0982636272138
0.0982626425929
0.0982616767208
0.0982607292409
0.0982597998033
0.0982588880647
0.0982579936884
0.098257116344
0.0982562557075
0.0982554114609
0.0982545832924
0.0982537708961
0.0982529739718
0.098252192225
0.098251425367
0.0982506731143
0.0982499351891
0.0982492113187
0.0982485012355
0.0982478046771
0.0982471213861
0.09824645111
0.098245793601
0.0982451486162
0.098244515917
0.0982438952698
0.0982432864449
0.0982426892174
0.0982421033665
0.0982415286756
0.0982409649322
0.098240411928
0.0982398694584
0.0982393373229
0.0982388153247
0.0982383032709
0.098237800972
0.0982373082423
0.0982368248997
0.0982363507654
0.098235885664
0.0982354294236
0.0982349818754
0.0982345428539
0.0982341121967
0.0982336897445
0.0982332753412
0.0982328688333
0.0982324700706
0.0982320789056
0.0982316951935
0.0982313187924
0.0982309495631
0.098230587369
0.0982302320761
0.098229883553
0.0982295416707
0.0982292063027
0.098228877325
0.0982285546158
0.0982282380558
0.0982279275279
0.0982276229171
0.0982273241107
0.0982270309982
0.098226743471
0.098226461423
0.0982261847495
0.0982259133484
0.098225647119
0.098225385963
0.0982251297837
0.0982248784863
0.0982246319777
0.0982243901668
0.098224152964
0.0982239202816
0.0982236920335
0.0982234681351
0.0982232485037
0.0982230330579
0.0982228217179
0.0982226144056
0.0982224110443
0.0982222115586
0.0982220158747
0.0982218239202
0.098221635624
0.0982214509164
0.0982212697291
0.098221091995
0.0982209176482
0.0982207466243
0.0982205788599
0.098220414293
0.0982202528625
0.0982200945088
0.0982199391732
0.0982197867982
0.0982196373274
0.0982194907054
0.098219346878
0.098219205792
0.098219067395
0.0982189316358
0.0982187984642
0.0982186678308
0.0982185396874
0.0982184139864
0.0982182906813
0.0982181697264
0.0982180510769
0.098217934689
0.0982178205195
0.0982177085261
0.0982175986674
0.0982174909027
0.098217385192
0.0982172814963
0.0982171797771
0.0982170799967
0.0982169821182
0.0982168861054
0.0982167919227
0.0982166995352
0.0982166089086
0.0982165200095
0.0982164328049
0.0982163472625
0.0982162633507
0.0982161810382
0.0982161002947
0.0982160210903
0.0982159433956
0.0982158671818
0.0982157924207
0.0982157190846
0.0982156471463
0.0982155765793
0.0982155073573
0.0982154394547
0.0982153728464
0.0982153075077
0.0982152434144
0.0982151805427
0.0982151188693
0.0982150583715
0.0982149990268
0.0982149408132
0.0982148837091
0.0982148276934
0.0982147727454
0.0982147188447
0.0982146659712
0.0982146141056
0.0982145632284
0.0982145133209
0.0982144643646
0.0982144163414
0.0982143692334
0.0982143230232
0.0982142776937
0.0982142332281
0.0982141896099
0.098214146823
0.0982141048515
0.0982140636799
0.0982140232929
0.0982139836755
0.0982139448131
0.0982139066913
0.098213869296
0.0982138326133
0.0982137966296
0.0982137613315
0.0982137267061
0.0982136927405
0.0982136594221
0.0982136267386
0.0982135946778
0.0982135632279
0.0982135323772
0.0982135021144
0.0982134724282
0.0982134433075
0.0982134147417
0.0982133867201
0.0982133592324
0.0982133322684
0.0982133058181
0.0982132798716
0.0982132544195
0.0982132294522
0.0982132049606
0.0982131809355
0.0982131573681
0.0982131342496
0.0982131115715
0.0982130893254
0.098213067503
0.0982130460963
0.0982130250973
0.0982130044983
0.0982129842916
0.0982129644698
0.0982129450255
0.0982129259515
0.0982129072408
0.0982128888864
0.0982128708816
0.0982128532197
0.0982128358941
0.0982128188984
0.0982128022265
0.0982127858719
0.0982127698289
0.0982127540913
0.0982127386534
0.0982127235094
0.0982127086538
0.0982126940811
0.0982126797859
0.0982126657628
0.0982126520068
0.0982126385126
0.0982126252754
0.0982126122902
0.0982125995522
0.0982125870568
0.0982125747993
0.0982125627751
0.0982125509799
0.0982125394092
0.0982125280588
0.0982125169245
0.0982125060021
0.0982124952878
0.0982124847774
0.098212474467
0.098212464353
0.0982124544316
0.098212444699
0.0982124351517
0.0982124257861
0.0982124165989
0.0982124075866
0.0982123987459
0.0982123900734
0.0982123815661
0.0982123732208
0.0982123650344
0.0982123570038
0.0982123491261
0.0982123413985
0.0982123338179
0.0982123263817
0.0982123190872
0.0982123119315
0.0982123049121
0.0982122980263
0.0982122912717
0.0982122846457
0.098212278146
0.09821227177
0.0982122655155
0.0982122593801
0.0982122533616
0.0982122474577
0.0982122416663
0.0982122359852
0.0982122304124
0.0982122249458
0.0982122195833
0.098212214323
0.098212209163
0.0982122041013
0.0982121991361
0.0982121942655
0.0982121894878
0.0982121848012
0.0982121802039
0.0982121756943
0.0982121712707
0.0982121669315
0.098212162675
0.0982121584997
0.0982121544041
0.0982121503866
0.0982121464458
0.0982121425801
0.0982121387883
0.0982121350688
0.0982121314203
0.0982121278415
0.0982121243311
0.0982121208876
0.09821211751
0.0982121141968
0.098212110947
0.0982121077593
0.0982121046324
0.0982121015654
0.098212098557
0.0982120956061
0.0982120927116
0.0982120898725
0.0982120870877
0.0982120843562
0.0982120816769
0.098212079049
0.0982120764713
0.098212073943
0.0982120714631
0.0982120690307
0.0982120666449
0.0982120643048
0.0982120620096
0.0982120597583
0.0982120575502
0.0982120553845
0.0982120532603
0.0982120511769
0.0982120491334
0.0982120471291
0.0982120451633
0.0982120432353
0.0982120413443
0.0982120394896
0.0982120376706
0.0982120358865
0.0982120341367
0.0982120324205
0.0982120307374
0.0982120290866
0.0982120274676
0.0982120258797
0.0982120243224
0.0982120227951
0.0982120212972
0.0982120198281
0.0982120183874
0.0982120169744
0.0982120155886
0.0982120142296
0.0982120128968
0.0982120115896
0.0982120103077
0.0982120090506
0.0982120078177
0.0982120066086
0.0982120054228
0.0982120042599
0.0982120031195
0.0982120020012
0.0982120009044
0.0982119998289
0.0982119987741
0.0982119977397
0.0982119967254
0.0982119957306
0.0982119947551
0.0982119937985
0.0982119928604
0.0982119919404
0.0982119910383
0.0982119901536
0.098211989286
0.0982119884352
0.098211987601
0.0982119867828
0.0982119859805
0.0982119851938
0.0982119844223
0.0982119836657
0.0982119829238
0.0982119821963
0.0982119814828
0.0982119807832
0.0982119800971
0.0982119794243
0.0982119787646
0.0982119781176
0.0982119774832
0.098211976861
0.0982119762509
0.0982119756526
0.0982119750659
0.0982119744905
0.0982119739263
0.0982119733729
0.0982119728303
0.0982119722982
0.0982119717763
0.0982119712646
0.0982119707627
0.0982119702705
0.0982119697878
0.0982119693144
0.0982119688501
0.0982119683948
0.0982119679483
0.0982119675103
0.0982119670808
0.0982119666595
0.0982119662464
0.0982119658411
0.0982119654437
0.0982119650538
0.0982119646715
0.0982119642964
0.0982119639285
0.0982119635677
0.0982119632137
0.0982119628665
0.0982119625259
0.0982119621918
0.0982119618641
0.0982119615426
0.0982119612271
0.0982119609177
0.0982119606141
0.0982119603162
0.098211960024
0.0982119597372
0.0982119594559
0.0982119591799
0.098211958909
0.0982119586432
0.0982119583824
0.0982119581264
0.0982119578752
0.0982119576287
0.0982119573868
0.0982119571493
0.0982119569163
0.0982119566875
0.098211956463
0.0982119562426
0.0982119560262
0.0982119558138
0.0982119556052
0.0982119554005
0.0982119551995
0.0982119550021
0.0982119548083
0.098211954618
0.0982119544312
0.0982119542476
0.0982119540674
0.0982119538904
0.0982119537165
0.0982119535457
0.0982119533779
0.0982119532131
0.0982119530512
0.0982119528922
0.0982119527359
0.0982119525823
0.0982119524314
0.0982119522831
0.0982119521374
0.0982119519942
0.0982119518534
0.0982119517151
0.0982119515791
0.0982119514454
0.098211951314
0.0982119511847
0.0982119510577
0.0982119509327
0.0982119508099
0.0982119506891
0.0982119505703
0.0982119504534
0.0982119503385
0.0982119502254
0.0982119501142
0.0982119500048
0.0982119498971
0.0982119497912
0.098211949687
0.0982119495845
0.0982119494835
0.0982119493842
0.0982119492865
0.0982119491903
0.0982119490956
0.0982119490024
0.0982119489106
0.0982119488202
0.0982119487313
0.0982119486437
0.0982119485575
0.0982119484726
0.0982119483889
0.0982119483066
0.0982119482255
0.0982119481456
0.0982119480669
0.0982119479894
0.0982119479131
0.0982119478378
0.0982119477638
0.0982119476908
0.0982119476189
0.098211947548
0.0982119474782
0.0982119474094
0.0982119473416
0.0982119472749
0.0982119472091
0.0982119471442
0.0982119470803
0.0982119470173
0.0982119469553
0.0982119468941
0.0982119468338
0.0982119467744
0.0982119467159
0.0982119466582
0.0982119466013
0.0982119465453
0.0982119464901
0.0982119464357
0.098211946382
0.0982119463292
0.0982119462771
0.0982119462258
0.0982119461752
0.0982119461253
0.0982119460762
0.0982119460278
0.0982119459802
0.0982119459332
0.0982119458869
0.0982119458413
0.0982119457964
0.0982119457521
0.0982119457086
0.0982119456657
0.0982119456234
0.0982119455818
0.0982119455408
0.0982119455004
0.0982119454607
0.0982119454216
0.0982119453831
0.0982119453452
0.0982119453079
0.0982119452712
0.0982119452351
0.0982119451996
0.0982119451647
0.0982119451304
0.0982119450966
0.0982119450634
0.0982119450307
0.0982119449987
0.0982119449671
0.0982119449362
0.0982119449057
0.0982119448758
0.0982119448465
0.0982119448177
0.0982119447894
0.0982119447617
0.0982119447345
0.0982119447078
0.0982119446816
0.098211944656
0.0982119446308
0.0982119446062
0.0982119445821
0.0982119445585
0.0982119445354
0.0982119445127
0.0982119444906
0.098211944469
0.0982119444479
0.0982119444272
0.098211944407
0.0982119443874
0.0982119443682
0.0982119443494
0.0982119443312
0.0982119443134
0.0982119442961
0.0982119442792
0.0982119442628
0.0982119442469
0.0982119442314
0.0982119442164
0.0982119442019
0.0982119441878
0.0982119441741
0.0982119441609
0.0982119441481
0.0982119441358
0.0982119441239
0.0982119441124
0.0982119441014
0.0982119440908
0.0982119440806
0.0982119440708
0.0982119440615
0.0982119440526
0.098211944044
0.0982119440359
0.0982119440283
0.098211944021
0.0982119440141
0.0982119440076
0.0982119440015
0.0982119439958
0.0982119439905
0.0982119439856
0.098211943981
0.0982119439769
0.0982119439731
0.0982119439697
0.0982119439666
0.098211943964
0.0982119439616
0.0982119439597
0.0982119439581
0.0982119439568
0.0982119439559
0.0982119439554
0.0982119439552
0.0982119439553
0.0982119439557
0.0982119439565
0.0982119439576
0.098211943959
0.0982119439608
0.0982119439628
0.0982119439652
0.0982119439679
0.0982119439708
0.0982119439741
0.0982119439777
0.0982119439815
0.0982119439856
0.09821194399
0.0982119439947
0.0982119439997
0.0982119440049
0.0982119440103
0.0982119440161
0.098211944022
0.0982119440283
0.0982119440347
0.0982119440414
0.0982119440484
0.0982119440555
0.0982119440629
0.0982119440705
0.0982119440783
0.0982119440863
0.0982119440946
0.098211944103
0.0982119441116
0.0982119441204
0.0982119441294
0.0982119441385
0.0982119441478
0.0982119441573
0.098211944167
0.0982119441768
0.0982119441868
0.0982119441969
0.0982119442071
0.0982119442175
0.098211944228
0.0982119442387
0.0982119442494
0.0982119442603
0.0982119442713
0.0982119442823
0.0982119442935
0.0982119443048
0.0982119443161
0.0982119443276
0.0982119443391
0.0982119443507
0.0982119443623
0.098211944374
0.0982119443858
0.0982119443976
0.0982119444095
0.0982119444214
0.0982119444333
0.0982119444453
0.0982119444572
0.0982119444692
0.0982119444812
0.0982119444933
0.0982119445053
0.0982119445173
0.0982119445293
0.0982119445413
0.0982119445532
0.0982119445652
0.0982119445771
0.098211944589
0.0982119446008
0.0982119446126
0.0982119446243
0.098211944636
0.0982119446477
0.0982119446592
0.0982119446707
0.0982119446821
0.0982119446935
0.0982119447047
0.0982119447159
0.098211944727
0.0982119447379
0.0982119447488
0.0982119447596
0.0982119447702
0.0982119447807
0.0982119447912
0.0982119448014
0.0982119448116
0.0982119448216
0.0982119448315
0.0982119448413
0.0982119448509
0.0982119448603
0.0982119448696
0.0982119448787
0.0982119448877
0.0982119448965
0.0982119449052
0.0982119449136
0.0982119449219
0.09821194493
0.098211944938
0.0982119449457
0.0982119449533
0.0982119449606
0.0982119449678
0.0982119449748
0.0982119449815
0.0982119449881
0.0982119449944
0.0982119450006
0.0982119450065
0.0982119450122
0.0982119450177
0.098211945023
0.098211945028
0.0982119450328
0.0982119450374
0.0982119450418
0.0982119450459
0.0982119450498
0.0982119450534
0.0982119450569
0.09821194506
0.098211945063
0.0982119450657
0.0982119450681
0.0982119450703
0.0982119450723
0.098211945074
0.0982119450754
0.0982119450766
0.0982119450776
0.0982119450783
0.0982119450787
0.0982119450789
0.0982119450789
0.0982119450785
0.098211945078
0.0982119450771
0.0982119450761
0.0982119450747
0.0982119450731
0.0982119450712
0.0982119450691
0.0982119450667
0.0982119450641
0.0982119450612
0.0982119450581
0.0982119450547
0.098211945051
0.0982119450471
0.0982119450429
0.0982119450385
0.0982119450338
0.0982119450289
0.0982119450237
0.0982119450183
0.0982119450126
0.0982119450067
0.0982119450005
0.0982119449941
0.0982119449875
0.0982119449806
0.0982119449734
0.098211944966
0.0982119449584
0.0982119449506
0.0982119449425
0.0982119449342
0.0982119449257
0.0982119449169
0.0982119449079
0.0982119448987
0.0982119448893
0.0982119448797
0.0982119448698
0.0982119448598
0.0982119448495
0.098211944839
0.0982119448283
0.0982119448174
0.0982119448064
0.0982119447951
0.0982119447836
0.098211944772
0.0982119447601
0.0982119447481
0.0982119447359
0.0982119447236
0.098211944711
0.0982119446983
0.0982119446854
0.0982119446724
0.0982119446592
0.0982119446459
0.0982119446324
0.0982119446188
0.098211944605
0.0982119445911
0.098211944577
0.0982119445628
0.0982119445485
0.0982119445341
0.0982119445195
0.0982119445049
0.0982119444901
0.0982119444752
0.0982119444603
0.0982119444452
0.09821194443
0.0982119444148
0.0982119443994
0.098211944384
0.0982119443685
0.098211944353
0.0982119443373
0.0982119443216
0.0982119443059
0.0982119442901
0.0982119442742
0.0982119442584
0.0982119442424
0.0982119442265
0.0982119442105
0.0982119441945
0.0982119441784
0.0982119441624
0.0982119441463
0.0982119441302
0.0982119441141
0.0982119440981
0.098211944082
0.098211944066
0.0982119440499
0.0982119440339
0.0982119440179
0.098211944002
0.0982119439861
0.0982119439702
0.0982119439543
0.0982119439386
0.0982119439228
0.0982119439072
0.0982119438916
0.098211943876
0.0982119438605
0.0982119438452
0.0982119438298
0.0982119438146
0.0982119437995
0.0982119437845
0.0982119437695
0.0982119437547
0.09821194374
0.0982119437254
0.0982119437109
0.0982119436965
0.0982119436822
0.0982119436681
0.0982119436541
0.0982119436403
0.0982119436266
0.098211943613
0.0982119435996
0.0982119435864
0.0982119435733
0.0982119435604
0.0982119435476
0.098211943535
0.0982119435226
0.0982119435104
0.0982119434983
0.0982119434864
0.0982119434747
0.0982119434632
0.0982119434519
0.0982119434408
0.0982119434299
0.0982119434193
0.0982119434088
0.0982119433985
0.0982119433885
0.0982119433786
0.098211943369
0.0982119433596
0.0982119433505
0.0982119433415
0.0982119433328
0.0982119433244
0.0982119433162
0.0982119433082
0.0982119433004
0.098211943293
0.0982119432857
0.0982119432787
0.098211943272
0.0982119432655
0.0982119432593
0.0982119432533
0.0982119432476
0.0982119432422
0.098211943237
0.0982119432321
0.0982119432275
0.0982119432231
0.0982119432191
0.0982119432152
0.0982119432117
0.0982119432085
0.0982119432055
0.0982119432028
0.0982119432003
0.0982119431982
0.0982119431964
0.0982119431948
0.0982119431935
0.0982119431925
0.0982119431918
0.0982119431913
0.0982119431912
0.0982119431913
0.0982119431918
0.0982119431925
0.0982119431935
0.0982119431948
0.0982119431964
0.0982119431983
0.0982119432004
0.0982119432029
0.0982119432056
0.0982119432086
0.098211943212
0.0982119432156
0.0982119432194
0.0982119432236
0.0982119432281
0.0982119432328
0.0982119432378
0.0982119432432
0.0982119432487
0.0982119432546
0.0982119432608
0.0982119432672
0.0982119432739
0.0982119432809
0.0982119432881
0.0982119432956
0.0982119433034
0.0982119433115
0.0982119433198
0.0982119433284
0.0982119433373
0.0982119433464
0.0982119433558
0.0982119433654
0.0982119433753
0.0982119433855
0.0982119433959
0.0982119434065
0.0982119434174
0.0982119434285
0.0982119434399
0.0982119434515
0.0982119434634
0.0982119434755
0.0982119434878
0.0982119435003
0.0982119435131
0.0982119435261
0.0982119435393
0.0982119435527
0.0982119435663
0.0982119435801
0.0982119435942
0.0982119436084
0.0982119436228
0.0982119436375
0.0982119436523
0.0982119436673
0.0982119436825
0.0982119436979
0.0982119437134
0.0982119437292
0.0982119437451
0.0982119437611
0.0982119437774
0.0982119437937
0.0982119438103
0.098211943827
0.0982119438438
0.0982119438607
0.0982119438779
0.0982119438951
0.0982119439125
0.0982119439299
0.0982119439476
0.0982119439653
0.0982119439831
0.0982119440011
0.0982119440191
0.0982119440373
0.0982119440555
0.0982119440738
0.0982119440922
0.0982119441107
0.0982119441293
0.0982119441479
0.0982119441666
0.0982119441854
0.0982119442042
0.0982119442231
0.098211944242
0.098211944261
0.09821194428
0.098211944299
0.0982119443181
0.0982119443372
0.0982119443563
0.0982119443754
0.0982119443945
0.0982119444136
0.0982119444328
0.0982119444519
0.098211944471
0.0982119444901
0.0982119445092
0.0982119445282
0.0982119445473
0.0982119445663
0.0982119445852
0.0982119446041
0.098211944623
0.0982119446418
0.0982119446605
0.0982119446792
0.0982119446979
0.0982119447164
0.0982119447349
0.0982119447533
0.0982119447716
0.0982119447898
0.0982119448079
0.0982119448259
0.0982119448438
0.0982119448616
0.0982119448793
0.0982119448969
0.0982119449143
0.0982119449316
0.0982119449488
0.0982119449659
0.0982119449828
0.0982119449995
0.0982119450162
0.0982119450326
0.0982119450489
0.0982119450651
0.098211945081
0.0982119450968
0.0982119451124
0.0982119451279
0.0982119451432
0.0982119451582
0.0982119451731
0.0982119451878
0.0982119452023
0.0982119452166
0.0982119452307
0.0982119452445
0.0982119452582
0.0982119452716
0.0982119452849
0.0982119452979
0.0982119453106
0.0982119453232
0.0982119453355
0.0982119453475
0.0982119453593
0.0982119453709
0.0982119453823
0.0982119453933
0.0982119454042
0.0982119454147
0.098211945425
0.0982119454351
0.0982119454448
0.0982119454544
0.0982119454636
0.0982119454726
0.0982119454812
0.0982119454897
0.0982119454978
0.0982119455056
0.0982119455132
0.0982119455205
0.0982119455274
0.0982119455341
0.0982119455405
0.0982119455466
0.0982119455524
0.0982119455579
0.0982119455631
0.098211945568
0.0982119455726
0.0982119455769
0.0982119455808
0.0982119455845
0.0982119455878
0.0982119455909
0.0982119455936
0.098211945596
0.0982119455981
0.0982119455999
0.0982119456014
0.0982119456025
0.0982119456033
0.0982119456038
0.098211945604
0.0982119456039
0.0982119456034
0.0982119456026
0.0982119456015
0.0982119456001
0.0982119455984
0.0982119455963
0.0982119455939
0.0982119455912
0.0982119455881
0.0982119455848
0.0982119455811
0.0982119455771
0.0982119455728
0.0982119455681
0.0982119455632
0.0982119455579
0.0982119455523
0.0982119455463
0.0982119455401
0.0982119455336
0.0982119455267
0.0982119455195
0.098211945512
0.0982119455042
0.0982119454961
0.0982119454877
0.0982119454789
0.0982119454699
0.0982119454605
0.0982119454509
0.098211945441
0.0982119454307
0.0982119454202
0.0982119454093
0.0982119453982
0.0982119453868
0.0982119453751
0.0982119453631
0.0982119453508
0.0982119453382
0.0982119453254
0.0982119453123
0.0982119452989
0.0982119452852
0.0982119452713
0.0982119452571
0.0982119452426
0.0982119452279
0.0982119452129
0.0982119451977
0.0982119451822
0.0982119451665
0.0982119451505
0.0982119451343
0.0982119451178
0.0982119451011
0.0982119450842
0.098211945067
0.0982119450496
0.098211945032
0.0982119450142
0.0982119449962
0.0982119449779
0.0982119449595
0.0982119449408
0.0982119449219
0.0982119449029
0.0982119448836
0.0982119448642
0.0982119448446
0.0982119448248
0.0982119448048
0.0982119447847
0.0982119447644
0.0982119447439
0.0982119447233
0.0982119447025
0.0982119446816
0.0982119446605
0.0982119446393
0.098211944618
0.0982119445965
0.0982119445749
0.0982119445532
0.0982119445313
0.0982119445094
0.0982119444873
0.0982119444651
0.0982119444429
0.0982119444205
0.098211944398
0.0982119443755
0.0982119443529
0.0982119443302
0.0982119443074
0.0982119442846
0.0982119442617
0.0982119442388
0.0982119442158
0.0982119441928
0.0982119441697
0.0982119441466
0.0982119441234
0.0982119441003
0.0982119440771
0.0982119440539
0.0982119440307
0.0982119440074
0.0982119439842
0.098211943961
0.0982119439378
0.0982119439146
0.0982119438915
0.0982119438683
0.0982119438452
0.0982119438221
0.0982119437991
0.0982119437761
0.0982119437532
0.0982119437303
0.0982119437075
0.0982119436847
0.098211943662
0.0982119436394
0.0982119436169
0.0982119435944
0.0982119435721
0.0982119435498
0.0982119435277
0.0982119435056
0.0982119434837
0.0982119434619
0.0982119434402
0.0982119434186
0.0982119433971
0.0982119433758
0.0982119433546
0.0982119433336
0.0982119433127
0.098211943292
0.0982119432714
0.098211943251
0.0982119432308
0.0982119432107
0.0982119431908
0.0982119431711
0.0982119431516
0.0982119431322
0.0982119431131
0.0982119430942
0.0982119430754
0.0982119430569
0.0982119430386
0.0982119430205
0.0982119430026
0.0982119429849
0.0982119429675
0.0982119429503
0.0982119429333
0.0982119429166
0.0982119429001
0.0982119428839
0.0982119428679
0.0982119428522
0.0982119428367
0.0982119428216
0.0982119428066
0.098211942792
0.0982119427776
0.0982119427635
0.0982119427496
0.0982119427361
0.0982119427228
0.0982119427099
0.0982119426972
0.0982119426848
0.0982119426727
0.0982119426609
0.0982119426495
0.0982119426383
0.0982119426275
0.0982119426169
0.0982119426067
0.0982119425968
0.0982119425872
0.098211942578
0.098211942569
0.0982119425604
0.0982119425522
0.0982119425442
0.0982119425367
0.0982119425294
0.0982119425225
0.0982119425159
0.0982119425097
0.0982119425038
0.0982119424982
0.0982119424931
0.0982119424882
0.0982119424837
0.0982119424796
0.0982119424758
0.0982119424724
0.0982119424693
0.0982119424666
0.0982119424643
0.0982119424623
0.0982119424607
0.0982119424595
0.0982119424586
0.098211942458
0.0982119424579
0.0982119424581
0.0982119424587
0.0982119424596
0.0982119424609
0.0982119424626
0.0982119424646
0.098211942467
0.0982119424698
0.098211942473
0.0982119424765
0.0982119424804
0.0982119424846
0.0982119424892
0.0982119424942
0.0982119424996
0.0982119425053
0.0982119425114
0.0982119425179
0.0982119425247
0.0982119425319
0.0982119425394
0.0982119425473
0.0982119425556
0.0982119425642
0.0982119425732
0.0982119425825
0.0982119425922
0.0982119426023
0.0982119426127
0.0982119426235
0.0982119426346
0.098211942646
0.0982119426578
0.09821194267
0.0982119426825
0.0982119426953
0.0982119427085
0.098211942722
0.0982119427359
0.09821194275
0.0982119427645
0.0982119427794
0.0982119427945
0.09821194281
0.0982119428258
0.098211942842
0.0982119428584
0.0982119428752
0.0982119428922
0.0982119429096
0.0982119429273
0.0982119429452
0.0982119429635
0.0982119429821
0.0982119430009
0.0982119430201
0.0982119430395
0.0982119430592
0.0982119430792
0.0982119430995
0.09821194312
0.0982119431408