/*--------------------------------*- C++ -*----------------------------------*\
| =========                 |                                                 |
| \\      /  F ield         | OpenFOAM: The Open Source CFD Toolbox           |
|  \\    /   O peration     | Version:  2406                                  |
|   \\  /    A nd           | Website:  www.openfoam.com                      |
|    \\/     M anipulation  |                                                 |
\*---------------------------------------------------------------------------*/
FoamFile
{
    version     2.0;
    format      ascii;
    arch        "LSB;label=32;scalar=64";
    class       volVectorField;
    location    "159";
    object      Utheta;
}
// * * * * * * * * * * * * * * * * * * * * * * * * * * * * * * * * * * * * * //

dimensions      [0 1 -1 0 0 0 0];

internalField   nonuniform List<vector> 
5009
(
(0 0 -4.75321295152e-09)
(0 0 -4.75321287317e-09)
(0 0 -4.75321281883e-09)
(0 0 -4.75321277265e-09)
(0 0 -4.75321273132e-09)
(0 0 -4.75321269384e-09)
(0 0 -4.7532126597e-09)
(0 0 -4.75321262855e-09)
(0 0 -4.75321260011e-09)
(0 0 -4.75321257417e-09)
(0 0 -4.75321255053e-09)
(0 0 -4.75321252903e-09)
(0 0 -4.75321250948e-09)
(0 0 -4.75321249173e-09)
(0 0 -4.75321247566e-09)
(0 0 -4.75321246113e-09)
(0 0 -4.75321244805e-09)
(0 0 -4.75321243631e-09)
(0 0 -4.75321242582e-09)
(0 0 -4.75321241651e-09)
(0 0 -4.75321240832e-09)
(0 0 -4.75321240118e-09)
(0 0 -4.75321239503e-09)
(0 0 -4.75321238984e-09)
(0 0 -4.75321238557e-09)
(0 0 -4.75321238216e-09)
(0 0 -4.75321237959e-09)
(0 0 -4.75321237783e-09)
(0 0 -4.75321237686e-09)
(0 0 -4.75321237664e-09)
(0 0 -4.75321237717e-09)
(0 0 -4.75321237841e-09)
(0 0 -4.75321238036e-09)
(0 0 -4.75321238299e-09)
(0 0 -4.7532123863e-09)
(0 0 -4.75321239027e-09)
(0 0 -4.75321239488e-09)
(0 0 -4.75321240013e-09)
(0 0 -4.753212406e-09)
(0 0 -4.75321241248e-09)
(0 0 -4.75321241956e-09)
(0 0 -4.75321242724e-09)
(0 0 -4.75321243549e-09)
(0 0 -4.75321244431e-09)
(0 0 -4.75321245368e-09)
(0 0 -4.7532124636e-09)
(0 0 -4.75321247405e-09)
(0 0 -4.75321248501e-09)
(0 0 -4.75321249649e-09)
(0 0 -4.75321250845e-09)
(0 0 -4.75321252089e-09)
(0 0 -4.75321253378e-09)
(0 0 -4.75321254712e-09)
(0 0 -4.75321256089e-09)
(0 0 -4.75321257506e-09)
(0 0 -4.75321258962e-09)
(0 0 -4.75321260455e-09)
(0 0 -4.75321261983e-09)
(0 0 -4.75321263543e-09)
(0 0 -4.75321265134e-09)
(0 0 -4.75321266752e-09)
(0 0 -4.75321268396e-09)
(0 0 -4.75321270064e-09)
(0 0 -4.75321271752e-09)
(0 0 -4.75321273457e-09)
(0 0 -4.75321275178e-09)
(0 0 -4.75321276911e-09)
(0 0 -4.75321278654e-09)
(0 0 -4.75321280403e-09)
(0 0 -4.75321282155e-09)
(0 0 -4.75321283908e-09)
(0 0 -4.75321285659e-09)
(0 0 -4.75321287404e-09)
(0 0 -4.7532128914e-09)
(0 0 -4.75321290864e-09)
(0 0 -4.75321292573e-09)
(0 0 -4.75321294264e-09)
(0 0 -4.75321295933e-09)
(0 0 -4.75321297578e-09)
(0 0 -4.75321299195e-09)
(0 0 -4.75321300781e-09)
(0 0 -4.75321302333e-09)
(0 0 -4.75321303849e-09)
(0 0 -4.75321305325e-09)
(0 0 -4.75321306758e-09)
(0 0 -4.75321308145e-09)
(0 0 -4.75321309485e-09)
(0 0 -4.75321310773e-09)
(0 0 -4.75321312008e-09)
(0 0 -4.75321313188e-09)
(0 0 -4.75321314309e-09)
(0 0 -4.7532131537e-09)
(0 0 -4.75321316369e-09)
(0 0 -4.75321317304e-09)
(0 0 -4.75321318173e-09)
(0 0 -4.75321318975e-09)
(0 0 -4.75321319708e-09)
(0 0 -4.75321320371e-09)
(0 0 -4.75321320963e-09)
(0 0 -4.75321321483e-09)
(0 0 -4.75321321931e-09)
(0 0 -4.75321322305e-09)
(0 0 -4.75321322606e-09)
(0 0 -4.75321322834e-09)
(0 0 -4.75321322989e-09)
(0 0 -4.75321323071e-09)
(0 0 -4.7532132308e-09)
(0 0 -4.75321323017e-09)
(0 0 -4.75321322884e-09)
(0 0 -4.7532132268e-09)
(0 0 -4.75321322409e-09)
(0 0 -4.7532132207e-09)
(0 0 -4.75321321666e-09)
(0 0 -4.75321321198e-09)
(0 0 -4.75321320669e-09)
(0 0 -4.75321320081e-09)
(0 0 -4.75321319435e-09)
(0 0 -4.75321318736e-09)
(0 0 -4.75321317984e-09)
(0 0 -4.75321317184e-09)
(0 0 -4.75321316337e-09)
(0 0 -4.75321315448e-09)
(0 0 -4.75321314518e-09)
(0 0 -4.75321313552e-09)
(0 0 -4.75321312553e-09)
(0 0 -4.75321311524e-09)
(0 0 -4.75321310469e-09)
(0 0 -4.75321309391e-09)
(0 0 -4.75321308294e-09)
(0 0 -4.75321307181e-09)
(0 0 -4.75321306057e-09)
(0 0 -4.75321304924e-09)
(0 0 -4.75321303787e-09)
(0 0 -4.75321302649e-09)
(0 0 -4.75321301513e-09)
(0 0 -4.75321300384e-09)
(0 0 -4.75321299265e-09)
(0 0 -4.7532129816e-09)
(0 0 -4.75321297071e-09)
(0 0 -4.75321296002e-09)
(0 0 -4.75321294956e-09)
(0 0 -4.75321293937e-09)
(0 0 -4.75321292947e-09)
(0 0 -4.7532129199e-09)
(0 0 -4.75321291068e-09)
(0 0 -4.75321290183e-09)
(0 0 -4.75321289339e-09)
(0 0 -4.75321288537e-09)
(0 0 -4.75321287779e-09)
(0 0 -4.75321287069e-09)
(0 0 -4.75321286407e-09)
(0 0 -4.75321285795e-09)
(0 0 -4.75321285235e-09)
(0 0 -4.75321284728e-09)
(0 0 -4.75321284275e-09)
(0 0 -4.75321283877e-09)
(0 0 -4.75321283535e-09)
(0 0 -4.75321283249e-09)
(0 0 -4.75321283021e-09)
(0 0 -4.75321282849e-09)
(0 0 -4.75321282734e-09)
(0 0 -4.75321282676e-09)
(0 0 -4.75321282674e-09)
(0 0 -4.75321282729e-09)
(0 0 -4.75321282839e-09)
(0 0 -4.75321283003e-09)
(0 0 -4.75321283221e-09)
(0 0 -4.75321283491e-09)
(0 0 -4.75321283812e-09)
(0 0 -4.75321284182e-09)
(0 0 -4.75321284601e-09)
(0 0 -4.75321285066e-09)
(0 0 -4.75321285575e-09)
(0 0 -4.75321286127e-09)
(0 0 -4.75321286718e-09)
(0 0 -4.75321287348e-09)
(0 0 -4.75321288014e-09)
(0 0 -4.75321288714e-09)
(0 0 -4.75321289444e-09)
(0 0 -4.75321290204e-09)
(0 0 -4.75321290989e-09)
(0 0 -4.75321291798e-09)
(0 0 -4.75321292627e-09)
(0 0 -4.75321293475e-09)
(0 0 -4.75321294338e-09)
(0 0 -4.75321295214e-09)
(0 0 -4.75321296101e-09)
(0 0 -4.75321296994e-09)
(0 0 -4.75321297892e-09)
(0 0 -4.75321298793e-09)
(0 0 -4.75321299692e-09)
(0 0 -4.75321300589e-09)
(0 0 -4.75321301479e-09)
(0 0 -4.75321302361e-09)
(0 0 -4.75321303232e-09)
(0 0 -4.7532130409e-09)
(0 0 -4.75321304933e-09)
(0 0 -4.75321305757e-09)
(0 0 -4.75321306562e-09)
(0 0 -4.75321307344e-09)
(0 0 -4.75321308102e-09)
(0 0 -4.75321308834e-09)
(0 0 -4.75321309538e-09)
(0 0 -4.75321310212e-09)
(0 0 -4.75321310855e-09)
(0 0 -4.75321311466e-09)
(0 0 -4.75321312041e-09)
(0 0 -4.75321312582e-09)
(0 0 -4.75321313085e-09)
(0 0 -4.75321313551e-09)
(0 0 -4.75321313978e-09)
(0 0 -4.75321314365e-09)
(0 0 -4.75321314713e-09)
(0 0 -4.75321315019e-09)
(0 0 -4.75321315283e-09)
(0 0 -4.75321315506e-09)
(0 0 -4.75321315687e-09)
(0 0 -4.75321315825e-09)
(0 0 -4.75321315921e-09)
(0 0 -4.75321315976e-09)
(0 0 -4.75321315988e-09)
(0 0 -4.75321315958e-09)
(0 0 -4.75321315887e-09)
(0 0 -4.75321315775e-09)
(0 0 -4.75321315623e-09)
(0 0 -4.75321315431e-09)
(0 0 -4.75321315201e-09)
(0 0 -4.75321314932e-09)
(0 0 -4.75321314627e-09)
(0 0 -4.75321314286e-09)
(0 0 -4.7532131391e-09)
(0 0 -4.753213135e-09)
(0 0 -4.75321313058e-09)
(0 0 -4.75321312585e-09)
(0 0 -4.75321312082e-09)
(0 0 -4.7532131155e-09)
(0 0 -4.75321310992e-09)
(0 0 -4.75321310409e-09)
(0 0 -4.75321309802e-09)
(0 0 -4.75321309173e-09)
(0 0 -4.75321308523e-09)
(0 0 -4.75321307854e-09)
(0 0 -4.75321307169e-09)
(0 0 -4.75321306467e-09)
(0 0 -4.75321305753e-09)
(0 0 -4.75321305026e-09)
(0 0 -4.75321304289e-09)
(0 0 -4.75321303543e-09)
(0 0 -4.75321302791e-09)
(0 0 -4.75321302034e-09)
(0 0 -4.75321301274e-09)
(0 0 -4.75321300512e-09)
(0 0 -4.7532129975e-09)
(0 0 -4.7532129899e-09)
(0 0 -4.75321298234e-09)
(0 0 -4.75321297482e-09)
(0 0 -4.75321296738e-09)
(0 0 -4.75321296002e-09)
(0 0 -4.75321295276e-09)
(0 0 -4.75321294561e-09)
(0 0 -4.75321293859e-09)
(0 0 -4.75321293171e-09)
(0 0 -4.75321292498e-09)
(0 0 -4.75321291843e-09)
(0 0 -4.75321291206e-09)
(0 0 -4.75321290588e-09)
(0 0 -4.75321289991e-09)
(0 0 -4.75321289416e-09)
(0 0 -4.75321288863e-09)
(0 0 -4.75321288334e-09)
(0 0 -4.75321287829e-09)
(0 0 -4.7532128735e-09)
(0 0 -4.75321286898e-09)
(0 0 -4.75321286472e-09)
(0 0 -4.75321286075e-09)
(0 0 -4.75321285705e-09)
(0 0 -4.75321285365e-09)
(0 0 -4.75321285054e-09)
(0 0 -4.75321284773e-09)
(0 0 -4.75321284523e-09)
(0 0 -4.75321284303e-09)
(0 0 -4.75321284114e-09)
(0 0 -4.75321283956e-09)
(0 0 -4.75321283829e-09)
(0 0 -4.75321283733e-09)
(0 0 -4.75321283668e-09)
(0 0 -4.75321283635e-09)
(0 0 -4.75321283633e-09)
(0 0 -4.75321283662e-09)
(0 0 -4.75321283721e-09)
(0 0 -4.75321283811e-09)
(0 0 -4.75321283931e-09)
(0 0 -4.7532128408e-09)
(0 0 -4.75321284259e-09)
(0 0 -4.75321284467e-09)
(0 0 -4.75321284703e-09)
(0 0 -4.75321284966e-09)
(0 0 -4.75321285257e-09)
(0 0 -4.75321285574e-09)
(0 0 -4.75321285917e-09)
(0 0 -4.75321286284e-09)
(0 0 -4.75321286676e-09)
(0 0 -4.75321287092e-09)
(0 0 -4.75321287529e-09)
(0 0 -4.75321287989e-09)
(0 0 -4.75321288469e-09)
(0 0 -4.75321288969e-09)
(0 0 -4.75321289488e-09)
(0 0 -4.75321290025e-09)
(0 0 -4.75321290578e-09)
(0 0 -4.75321291148e-09)
(0 0 -4.75321291732e-09)
(0 0 -4.75321292331e-09)
(0 0 -4.75321292941e-09)
(0 0 -4.75321293564e-09)
(0 0 -4.75321294197e-09)
(0 0 -4.7532129484e-09)
(0 0 -4.7532129549e-09)
(0 0 -4.75321296149e-09)
(0 0 -4.75321296813e-09)
(0 0 -4.75321297482e-09)
(0 0 -4.75321298156e-09)
(0 0 -4.75321298832e-09)
(0 0 -4.7532129951e-09)
(0 0 -4.75321300189e-09)
(0 0 -4.75321300867e-09)
(0 0 -4.75321301544e-09)
(0 0 -4.75321302218e-09)
(0 0 -4.75321302889e-09)
(0 0 -4.75321303555e-09)
(0 0 -4.75321304216e-09)
(0 0 -4.7532130487e-09)
(0 0 -4.75321305516e-09)
(0 0 -4.75321306154e-09)
(0 0 -4.75321306782e-09)
(0 0 -4.753213074e-09)
(0 0 -4.75321308007e-09)
(0 0 -4.75321308601e-09)
(0 0 -4.75321309183e-09)
(0 0 -4.75321309751e-09)
(0 0 -4.75321310304e-09)
(0 0 -4.75321310842e-09)
(0 0 -4.75321311364e-09)
(0 0 -4.75321311869e-09)
(0 0 -4.75321312357e-09)
(0 0 -4.75321312826e-09)
(0 0 -4.75321313277e-09)
(0 0 -4.75321313709e-09)
(0 0 -4.7532131412e-09)
(0 0 -4.75321314512e-09)
(0 0 -4.75321314883e-09)
(0 0 -4.75321315232e-09)
(0 0 -4.7532131556e-09)
(0 0 -4.75321315866e-09)
(0 0 -4.75321316149e-09)
(0 0 -4.75321316409e-09)
(0 0 -4.75321316647e-09)
(0 0 -4.75321316862e-09)
(0 0 -4.75321317053e-09)
(0 0 -4.7532131722e-09)
(0 0 -4.75321317364e-09)
(0 0 -4.75321317483e-09)
(0 0 -4.75321317579e-09)
(0 0 -4.75321317651e-09)
(0 0 -4.75321317699e-09)
(0 0 -4.75321317723e-09)
(0 0 -4.75321317723e-09)
(0 0 -4.75321317699e-09)
(0 0 -4.75321317651e-09)
(0 0 -4.7532131758e-09)
(0 0 -4.75321317486e-09)
(0 0 -4.75321317368e-09)
(0 0 -4.75321317227e-09)
(0 0 -4.75321317064e-09)
(0 0 -4.75321316878e-09)
(0 0 -4.7532131667e-09)
(0 0 -4.7532131644e-09)
(0 0 -4.75321316189e-09)
(0 0 -4.75321315917e-09)
(0 0 -4.75321315624e-09)
(0 0 -4.75321315311e-09)
(0 0 -4.75321314979e-09)
(0 0 -4.75321314627e-09)
(0 0 -4.75321314257e-09)
(0 0 -4.75321313868e-09)
(0 0 -4.75321313462e-09)
(0 0 -4.75321313039e-09)
(0 0 -4.75321312599e-09)
(0 0 -4.75321312143e-09)
(0 0 -4.75321311672e-09)
(0 0 -4.75321311186e-09)
(0 0 -4.75321310686e-09)
(0 0 -4.75321310173e-09)
(0 0 -4.75321309647e-09)
(0 0 -4.75321309109e-09)
(0 0 -4.7532130856e-09)
(0 0 -4.75321308e-09)
(0 0 -4.7532130743e-09)
(0 0 -4.75321306851e-09)
(0 0 -4.75321306263e-09)
(0 0 -4.75321305667e-09)
(0 0 -4.75321305065e-09)
(0 0 -4.75321304455e-09)
(0 0 -4.75321303841e-09)
(0 0 -4.75321303221e-09)
(0 0 -4.75321302597e-09)
(0 0 -4.75321301969e-09)
(0 0 -4.75321301339e-09)
(0 0 -4.75321300707e-09)
(0 0 -4.75321300074e-09)
(0 0 -4.7532129944e-09)
(0 0 -4.75321298806e-09)
(0 0 -4.75321298173e-09)
(0 0 -4.75321297542e-09)
(0 0 -4.75321296913e-09)
(0 0 -4.75321296287e-09)
(0 0 -4.75321295665e-09)
(0 0 -4.75321295047e-09)
(0 0 -4.75321294435e-09)
(0 0 -4.75321293828e-09)
(0 0 -4.75321293227e-09)
(0 0 -4.75321292634e-09)
(0 0 -4.75321292048e-09)
(0 0 -4.75321291471e-09)
(0 0 -4.75321290902e-09)
(0 0 -4.75321290343e-09)
(0 0 -4.75321289794e-09)
(0 0 -4.75321289256e-09)
(0 0 -4.75321288728e-09)
(0 0 -4.75321288213e-09)
(0 0 -4.7532128771e-09)
(0 0 -4.7532128722e-09)
(0 0 -4.75321286743e-09)
(0 0 -4.75321286279e-09)
(0 0 -4.7532128583e-09)
(0 0 -4.75321285396e-09)
(0 0 -4.75321284976e-09)
(0 0 -4.75321284572e-09)
(0 0 -4.75321284184e-09)
(0 0 -4.75321283812e-09)
(0 0 -4.75321283457e-09)
(0 0 -4.75321283119e-09)
(0 0 -4.75321282798e-09)
(0 0 -4.75321282494e-09)
(0 0 -4.75321282208e-09)
(0 0 -4.7532128194e-09)
(0 0 -4.75321281691e-09)
(0 0 -4.7532128146e-09)
(0 0 -4.75321281247e-09)
(0 0 -4.75321281054e-09)
(0 0 -4.75321280879e-09)
(0 0 -4.75321280724e-09)
(0 0 -4.75321280588e-09)
(0 0 -4.75321280471e-09)
(0 0 -4.75321280373e-09)
(0 0 -4.75321280296e-09)
(0 0 -4.75321280237e-09)
(0 0 -4.75321280198e-09)
(0 0 -4.75321280179e-09)
(0 0 -4.75321280179e-09)
(0 0 -4.75321280199e-09)
(0 0 -4.75321280238e-09)
(0 0 -4.75321280297e-09)
(0 0 -4.75321280375e-09)
(0 0 -4.75321280471e-09)
(0 0 -4.75321280587e-09)
(0 0 -4.75321280722e-09)
(0 0 -4.75321280876e-09)
(0 0 -4.75321281048e-09)
(0 0 -4.75321281238e-09)
(0 0 -4.75321281447e-09)
(0 0 -4.75321281673e-09)
(0 0 -4.75321281917e-09)
(0 0 -4.75321282178e-09)
(0 0 -4.75321282457e-09)
(0 0 -4.75321282752e-09)
(0 0 -4.75321283064e-09)
(0 0 -4.75321283392e-09)
(0 0 -4.75321283736e-09)
(0 0 -4.75321284095e-09)
(0 0 -4.7532128447e-09)
(0 0 -4.75321284859e-09)
(0 0 -4.75321285263e-09)
(0 0 -4.7532128568e-09)
(0 0 -4.75321286112e-09)
(0 0 -4.75321286556e-09)
(0 0 -4.75321287013e-09)
(0 0 -4.75321287483e-09)
(0 0 -4.75321287965e-09)
(0 0 -4.75321288457e-09)
(0 0 -4.75321288961e-09)
(0 0 -4.75321289476e-09)
(0 0 -4.7532129e-09)
(0 0 -4.75321290534e-09)
(0 0 -4.75321291077e-09)
(0 0 -4.75321291629e-09)
(0 0 -4.75321292188e-09)
(0 0 -4.75321292756e-09)
(0 0 -4.7532129333e-09)
(0 0 -4.75321293911e-09)
(0 0 -4.75321294498e-09)
(0 0 -4.7532129509e-09)
(0 0 -4.75321295687e-09)
(0 0 -4.75321296289e-09)
(0 0 -4.75321296895e-09)
(0 0 -4.75321297504e-09)
(0 0 -4.75321298116e-09)
(0 0 -4.7532129873e-09)
(0 0 -4.75321299347e-09)
(0 0 -4.75321299964e-09)
(0 0 -4.75321300582e-09)
(0 0 -4.75321301201e-09)
(0 0 -4.75321301819e-09)
(0 0 -4.75321302436e-09)
(0 0 -4.75321303053e-09)
(0 0 -4.75321303667e-09)
(0 0 -4.75321304279e-09)
(0 0 -4.75321304888e-09)
(0 0 -4.75321305493e-09)
(0 0 -4.75321306095e-09)
(0 0 -4.75321306693e-09)
(0 0 -4.75321307285e-09)
(0 0 -4.75321307873e-09)
(0 0 -4.75321308454e-09)
(0 0 -4.75321309029e-09)
(0 0 -4.75321309598e-09)
(0 0 -4.75321310159e-09)
(0 0 -4.75321310713e-09)
(0 0 -4.75321311258e-09)
(0 0 -4.75321311795e-09)
(0 0 -4.75321312323e-09)
(0 0 -4.75321312842e-09)
(0 0 -4.75321313351e-09)
(0 0 -4.7532131385e-09)
(0 0 -4.75321314338e-09)
(0 0 -4.75321314816e-09)
(0 0 -4.75321315282e-09)
(0 0 -4.75321315736e-09)
(0 0 -4.75321316179e-09)
(0 0 -4.75321316609e-09)
(0 0 -4.75321317026e-09)
(0 0 -4.75321317431e-09)
(0 0 -4.75321317822e-09)
(0 0 -4.753213182e-09)
(0 0 -4.75321318564e-09)
(0 0 -4.75321318913e-09)
(0 0 -4.75321319249e-09)
(0 0 -4.75321319569e-09)
(0 0 -4.75321319875e-09)
(0 0 -4.75321320166e-09)
(0 0 -4.75321320442e-09)
(0 0 -4.75321320702e-09)
(0 0 -4.75321320946e-09)
(0 0 -4.75321321175e-09)
(0 0 -4.75321321387e-09)
(0 0 -4.75321321584e-09)
(0 0 -4.75321321764e-09)
(0 0 -4.75321321928e-09)
(0 0 -4.75321322075e-09)
(0 0 -4.75321322206e-09)
(0 0 -4.7532132232e-09)
(0 0 -4.75321322417e-09)
(0 0 -4.75321322498e-09)
(0 0 -4.75321322561e-09)
(0 0 -4.75321322608e-09)
(0 0 -4.75321322638e-09)
(0 0 -4.75321322651e-09)
(0 0 -4.75321322647e-09)
(0 0 -4.75321322626e-09)
(0 0 -4.75321322588e-09)
(0 0 -4.75321322534e-09)
(0 0 -4.75321322463e-09)
(0 0 -4.75321322375e-09)
(0 0 -4.7532132227e-09)
(0 0 -4.75321322149e-09)
(0 0 -4.75321322012e-09)
(0 0 -4.75321321858e-09)
(0 0 -4.75321321688e-09)
(0 0 -4.75321321502e-09)
(0 0 -4.753213213e-09)
(0 0 -4.75321321082e-09)
(0 0 -4.75321320849e-09)
(0 0 -4.75321320601e-09)
(0 0 -4.75321320337e-09)
(0 0 -4.75321320058e-09)
(0 0 -4.75321319765e-09)
(0 0 -4.75321319457e-09)
(0 0 -4.75321319134e-09)
(0 0 -4.75321318798e-09)
(0 0 -4.75321318447e-09)
(0 0 -4.75321318083e-09)
(0 0 -4.75321317706e-09)
(0 0 -4.75321317316e-09)
(0 0 -4.75321316913e-09)
(0 0 -4.75321316497e-09)
(0 0 -4.75321316069e-09)
(0 0 -4.7532131563e-09)
(0 0 -4.75321315178e-09)
(0 0 -4.75321314716e-09)
(0 0 -4.75321314243e-09)
(0 0 -4.75321313759e-09)
(0 0 -4.75321313264e-09)
(0 0 -4.7532131276e-09)
(0 0 -4.75321312247e-09)
(0 0 -4.75321311724e-09)
(0 0 -4.75321311192e-09)
(0 0 -4.75321310652e-09)
(0 0 -4.75321310104e-09)
(0 0 -4.75321309548e-09)
(0 0 -4.75321308985e-09)
(0 0 -4.75321308415e-09)
(0 0 -4.75321307838e-09)
(0 0 -4.75321307256e-09)
(0 0 -4.75321306667e-09)
(0 0 -4.75321306073e-09)
(0 0 -4.75321305474e-09)
(0 0 -4.75321304871e-09)
(0 0 -4.75321304263e-09)
(0 0 -4.75321303652e-09)
(0 0 -4.75321303037e-09)
(0 0 -4.7532130242e-09)
(0 0 -4.753213018e-09)
(0 0 -4.75321301178e-09)
(0 0 -4.75321300554e-09)
(0 0 -4.75321299928e-09)
(0 0 -4.75321299302e-09)
(0 0 -4.75321298676e-09)
(0 0 -4.75321298049e-09)
(0 0 -4.75321297423e-09)
(0 0 -4.75321296797e-09)
(0 0 -4.75321296173e-09)
(0 0 -4.7532129555e-09)
(0 0 -4.7532129493e-09)
(0 0 -4.75321294311e-09)
(0 0 -4.75321293696e-09)
(0 0 -4.75321293083e-09)
(0 0 -4.75321292474e-09)
(0 0 -4.75321291869e-09)
(0 0 -4.75321291268e-09)
(0 0 -4.75321290672e-09)
(0 0 -4.75321290082e-09)
(0 0 -4.75321289496e-09)
(0 0 -4.75321288917e-09)
(0 0 -4.75321288343e-09)
(0 0 -4.75321287776e-09)
(0 0 -4.75321287216e-09)
(0 0 -4.75321286664e-09)
(0 0 -4.75321286119e-09)
(0 0 -4.75321285582e-09)
(0 0 -4.75321285053e-09)
(0 0 -4.75321284532e-09)
(0 0 -4.75321284021e-09)
(0 0 -4.75321283519e-09)
(0 0 -4.75321283026e-09)
(0 0 -4.75321282544e-09)
(0 0 -4.75321282071e-09)
(0 0 -4.75321281609e-09)
(0 0 -4.75321281158e-09)
(0 0 -4.75321280717e-09)
(0 0 -4.75321280288e-09)
(0 0 -4.7532127987e-09)
(0 0 -4.75321279464e-09)
(0 0 -4.75321279071e-09)
(0 0 -4.75321278689e-09)
(0 0 -4.7532127832e-09)
(0 0 -4.75321277963e-09)
(0 0 -4.7532127762e-09)
(0 0 -4.75321277289e-09)
(0 0 -4.75321276972e-09)
(0 0 -4.75321276668e-09)
(0 0 -4.75321276378e-09)
(0 0 -4.75321276102e-09)
(0 0 -4.7532127584e-09)
(0 0 -4.75321275592e-09)
(0 0 -4.75321275358e-09)
(0 0 -4.75321275139e-09)
(0 0 -4.75321274934e-09)
(0 0 -4.75321274744e-09)
(0 0 -4.75321274569e-09)
(0 0 -4.75321274409e-09)
(0 0 -4.75321274264e-09)
(0 0 -4.75321274133e-09)
(0 0 -4.75321274018e-09)
(0 0 -4.75321273918e-09)
(0 0 -4.75321273834e-09)
(0 0 -4.75321273764e-09)
(0 0 -4.7532127371e-09)
(0 0 -4.75321273672e-09)
(0 0 -4.75321273649e-09)
(0 0 -4.75321273641e-09)
(0 0 -4.75321273648e-09)
(0 0 -4.75321273671e-09)
(0 0 -4.7532127371e-09)
(0 0 -4.75321273763e-09)
(0 0 -4.75321273832e-09)
(0 0 -4.75321273917e-09)
(0 0 -4.75321274016e-09)
(0 0 -4.75321274131e-09)
(0 0 -4.75321274261e-09)
(0 0 -4.75321274405e-09)
(0 0 -4.75321274565e-09)
(0 0 -4.7532127474e-09)
(0 0 -4.75321274929e-09)
(0 0 -4.75321275133e-09)
(0 0 -4.75321275352e-09)
(0 0 -4.75321275585e-09)
(0 0 -4.75321275832e-09)
(0 0 -4.75321276093e-09)
(0 0 -4.75321276368e-09)
(0 0 -4.75321276657e-09)
(0 0 -4.7532127696e-09)
(0 0 -4.75321277276e-09)
(0 0 -4.75321277606e-09)
(0 0 -4.75321277949e-09)
(0 0 -4.75321278304e-09)
(0 0 -4.75321278672e-09)
(0 0 -4.75321279053e-09)
(0 0 -4.75321279446e-09)
(0 0 -4.75321279851e-09)
(0 0 -4.75321280268e-09)
(0 0 -4.75321280697e-09)
(0 0 -4.75321281137e-09)
(0 0 -4.75321281588e-09)
(0 0 -4.75321282051e-09)
(0 0 -4.75321282523e-09)
(0 0 -4.75321283007e-09)
(0 0 -4.753212835e-09)
(0 0 -4.75321284003e-09)
(0 0 -4.75321284516e-09)
(0 0 -4.75321285038e-09)
(0 0 -4.75321285569e-09)
(0 0 -4.75321286109e-09)
(0 0 -4.75321286657e-09)
(0 0 -4.75321287214e-09)
(0 0 -4.75321287778e-09)
(0 0 -4.7532128835e-09)
(0 0 -4.75321288929e-09)
(0 0 -4.75321289515e-09)
(0 0 -4.75321290107e-09)
(0 0 -4.75321290706e-09)
(0 0 -4.75321291311e-09)
(0 0 -4.75321291922e-09)
(0 0 -4.75321292538e-09)
(0 0 -4.75321293158e-09)
(0 0 -4.75321293784e-09)
(0 0 -4.75321294414e-09)
(0 0 -4.75321295048e-09)
(0 0 -4.75321295685e-09)
(0 0 -4.75321296326e-09)
(0 0 -4.7532129697e-09)
(0 0 -4.75321297616e-09)
(0 0 -4.75321298265e-09)
(0 0 -4.75321298916e-09)
(0 0 -4.75321299569e-09)
(0 0 -4.75321300222e-09)
(0 0 -4.75321300877e-09)
(0 0 -4.75321301533e-09)
(0 0 -4.75321302188e-09)
(0 0 -4.75321302844e-09)
(0 0 -4.75321303499e-09)
(0 0 -4.75321304154e-09)
(0 0 -4.75321304807e-09)
(0 0 -4.75321305459e-09)
(0 0 -4.75321306109e-09)
(0 0 -4.75321306757e-09)
(0 0 -4.75321307403e-09)
(0 0 -4.75321308046e-09)
(0 0 -4.75321308686e-09)
(0 0 -4.75321309322e-09)
(0 0 -4.75321309955e-09)
(0 0 -4.75321310584e-09)
(0 0 -4.75321311208e-09)
(0 0 -4.75321311828e-09)
(0 0 -4.75321312443e-09)
(0 0 -4.75321313052e-09)
(0 0 -4.75321313656e-09)
(0 0 -4.75321314253e-09)
(0 0 -4.75321314845e-09)
(0 0 -4.7532131543e-09)
(0 0 -4.75321316008e-09)
(0 0 -4.75321316579e-09)
(0 0 -4.75321317143e-09)
(0 0 -4.75321317699e-09)
(0 0 -4.75321318247e-09)
(0 0 -4.75321318787e-09)
(0 0 -4.75321319318e-09)
(0 0 -4.75321319841e-09)
(0 0 -4.75321320354e-09)
(0 0 -4.75321320858e-09)
(0 0 -4.75321321353e-09)
(0 0 -4.75321321838e-09)
(0 0 -4.75321322313e-09)
(0 0 -4.75321322777e-09)
(0 0 -4.75321323231e-09)
(0 0 -4.75321323674e-09)
(0 0 -4.75321324107e-09)
(0 0 -4.75321324528e-09)
(0 0 -4.75321324938e-09)
(0 0 -4.75321325336e-09)
(0 0 -4.75321325723e-09)
(0 0 -4.75321326097e-09)
(0 0 -4.7532132646e-09)
(0 0 -4.7532132681e-09)
(0 0 -4.75321327148e-09)
(0 0 -4.75321327472e-09)
(0 0 -4.75321327785e-09)
(0 0 -4.75321328084e-09)
(0 0 -4.7532132837e-09)
(0 0 -4.75321328643e-09)
(0 0 -4.75321328902e-09)
(0 0 -4.75321329148e-09)
(0 0 -4.7532132938e-09)
(0 0 -4.75321329599e-09)
(0 0 -4.75321329803e-09)
(0 0 -4.75321329994e-09)
(0 0 -4.75321330171e-09)
(0 0 -4.75321330333e-09)
(0 0 -4.75321330481e-09)
(0 0 -4.75321330615e-09)
(0 0 -4.75321330735e-09)
(0 0 -4.7532133084e-09)
(0 0 -4.7532133093e-09)
(0 0 -4.75321331006e-09)
(0 0 -4.75321331068e-09)
(0 0 -4.75321331115e-09)
(0 0 -4.75321331147e-09)
(0 0 -4.75321331165e-09)
(0 0 -4.75321331168e-09)
(0 0 -4.75321331156e-09)
(0 0 -4.7532133113e-09)
(0 0 -4.75321331089e-09)
(0 0 -4.75321331033e-09)
(0 0 -4.75321330963e-09)
(0 0 -4.75321330878e-09)
(0 0 -4.75321330778e-09)
(0 0 -4.75321330664e-09)
(0 0 -4.75321330536e-09)
(0 0 -4.75321330393e-09)
(0 0 -4.75321330235e-09)
(0 0 -4.75321330064e-09)
(0 0 -4.75321329878e-09)
(0 0 -4.75321329678e-09)
(0 0 -4.75321329464e-09)
(0 0 -4.75321329236e-09)
(0 0 -4.75321328995e-09)
(0 0 -4.75321328739e-09)
(0 0 -4.7532132847e-09)
(0 0 -4.75321328187e-09)
(0 0 -4.75321327891e-09)
(0 0 -4.75321327582e-09)
(0 0 -4.75321327259e-09)
(0 0 -4.75321326924e-09)
(0 0 -4.75321326576e-09)
(0 0 -4.75321326215e-09)
(0 0 -4.75321325841e-09)
(0 0 -4.75321325455e-09)
(0 0 -4.75321325057e-09)
(0 0 -4.75321324647e-09)
(0 0 -4.75321324225e-09)
(0 0 -4.75321323791e-09)
(0 0 -4.75321323346e-09)
(0 0 -4.7532132289e-09)
(0 0 -4.75321322422e-09)
(0 0 -4.75321321944e-09)
(0 0 -4.75321321455e-09)
(0 0 -4.75321320955e-09)
(0 0 -4.75321320445e-09)
(0 0 -4.75321319926e-09)
(0 0 -4.75321319396e-09)
(0 0 -4.75321318857e-09)
(0 0 -4.75321318308e-09)
(0 0 -4.75321317751e-09)
(0 0 -4.75321317185e-09)
(0 0 -4.7532131661e-09)
(0 0 -4.75321316026e-09)
(0 0 -4.75321315435e-09)
(0 0 -4.75321314835e-09)
(0 0 -4.75321314229e-09)
(0 0 -4.75321313614e-09)
(0 0 -4.75321312993e-09)
(0 0 -4.75321312365e-09)
(0 0 -4.7532131173e-09)
(0 0 -4.7532131109e-09)
(0 0 -4.75321310443e-09)
(0 0 -4.7532130979e-09)
(0 0 -4.75321309132e-09)
(0 0 -4.75321308469e-09)
(0 0 -4.75321307801e-09)
(0 0 -4.75321307129e-09)
(0 0 -4.75321306452e-09)
(0 0 -4.75321305771e-09)
(0 0 -4.75321305087e-09)
(0 0 -4.75321304399e-09)
(0 0 -4.75321303708e-09)
(0 0 -4.75321303014e-09)
(0 0 -4.75321302318e-09)
(0 0 -4.7532130162e-09)
(0 0 -4.75321300919e-09)
(0 0 -4.75321300217e-09)
(0 0 -4.75321299513e-09)
(0 0 -4.75321298809e-09)
(0 0 -4.75321298104e-09)
(0 0 -4.75321297398e-09)
(0 0 -4.75321296692e-09)
(0 0 -4.75321295987e-09)
(0 0 -4.75321295281e-09)
(0 0 -4.75321294577e-09)
(0 0 -4.75321293873e-09)
(0 0 -4.75321293171e-09)
(0 0 -4.75321292471e-09)
(0 0 -4.75321291772e-09)
(0 0 -4.75321291076e-09)
(0 0 -4.75321290382e-09)
(0 0 -4.75321289691e-09)
(0 0 -4.75321289003e-09)
(0 0 -4.75321288319e-09)
(0 0 -4.75321287638e-09)
(0 0 -4.75321286961e-09)
(0 0 -4.75321286288e-09)
(0 0 -4.7532128562e-09)
(0 0 -4.75321284957e-09)
(0 0 -4.75321284299e-09)
(0 0 -4.75321283646e-09)
(0 0 -4.75321282999e-09)
(0 0 -4.75321282357e-09)
(0 0 -4.75321281722e-09)
(0 0 -4.75321281093e-09)
(0 0 -4.75321280471e-09)
(0 0 -4.75321279856e-09)
(0 0 -4.75321279248e-09)
(0 0 -4.75321278647e-09)
(0 0 -4.75321278054e-09)
(0 0 -4.7532127747e-09)
(0 0 -4.75321276893e-09)
(0 0 -4.75321276325e-09)
(0 0 -4.75321275765e-09)
(0 0 -4.75321275214e-09)
(0 0 -4.75321274673e-09)
(0 0 -4.7532127414e-09)
(0 0 -4.75321273618e-09)
(0 0 -4.75321273105e-09)
(0 0 -4.75321272602e-09)
(0 0 -4.75321272109e-09)
(0 0 -4.75321271627e-09)
(0 0 -4.75321271155e-09)
(0 0 -4.75321270695e-09)
(0 0 -4.75321270245e-09)
(0 0 -4.75321269806e-09)
(0 0 -4.75321269379e-09)
(0 0 -4.75321268963e-09)
(0 0 -4.75321268559e-09)
(0 0 -4.75321268167e-09)
(0 0 -4.75321267787e-09)
(0 0 -4.75321267419e-09)
(0 0 -4.75321267063e-09)
(0 0 -4.7532126672e-09)
(0 0 -4.7532126639e-09)
(0 0 -4.75321266072e-09)
(0 0 -4.75321265767e-09)
(0 0 -4.75321265476e-09)
(0 0 -4.75321265197e-09)
(0 0 -4.75321264932e-09)
(0 0 -4.7532126468e-09)
(0 0 -4.75321264442e-09)
(0 0 -4.75321264217e-09)
(0 0 -4.75321264006e-09)
(0 0 -4.75321263809e-09)
(0 0 -4.75321263626e-09)
(0 0 -4.75321263457e-09)
(0 0 -4.75321263301e-09)
(0 0 -4.7532126316e-09)
(0 0 -4.75321263033e-09)
(0 0 -4.75321262921e-09)
(0 0 -4.75321262822e-09)
(0 0 -4.75321262738e-09)
(0 0 -4.75321262668e-09)
(0 0 -4.75321262613e-09)
(0 0 -4.75321262572e-09)
(0 0 -4.75321262546e-09)
(0 0 -4.75321262534e-09)
(0 0 -4.75321262536e-09)
(0 0 -4.75321262554e-09)
(0 0 -4.75321262585e-09)
(0 0 -4.75321262631e-09)
(0 0 -4.75321262692e-09)
(0 0 -4.75321262767e-09)
(0 0 -4.75321262857e-09)
(0 0 -4.75321262961e-09)
(0 0 -4.75321263079e-09)
(0 0 -4.75321263212e-09)
(0 0 -4.75321263359e-09)
(0 0 -4.7532126352e-09)
(0 0 -4.75321263696e-09)
(0 0 -4.75321263886e-09)
(0 0 -4.7532126409e-09)
(0 0 -4.75321264308e-09)
(0 0 -4.7532126454e-09)
(0 0 -4.75321264786e-09)
(0 0 -4.75321265046e-09)
(0 0 -4.75321265319e-09)
(0 0 -4.75321265606e-09)
(0 0 -4.75321265907e-09)
(0 0 -4.75321266221e-09)
(0 0 -4.75321266548e-09)
(0 0 -4.75321266889e-09)
(0 0 -4.75321267243e-09)
(0 0 -4.75321267609e-09)
(0 0 -4.75321267989e-09)
(0 0 -4.75321268381e-09)
(0 0 -4.75321268786e-09)
(0 0 -4.75321269203e-09)
(0 0 -4.75321269633e-09)
(0 0 -4.75321270074e-09)
(0 0 -4.75321270528e-09)
(0 0 -4.75321270993e-09)
(0 0 -4.75321271471e-09)
(0 0 -4.75321271959e-09)
(0 0 -4.75321272459e-09)
(0 0 -4.7532127297e-09)
(0 0 -4.75321273492e-09)
(0 0 -4.75321274025e-09)
(0 0 -4.75321274568e-09)
(0 0 -4.75321275122e-09)
(0 0 -4.75321275686e-09)
(0 0 -4.7532127626e-09)
(0 0 -4.75321276844e-09)
(0 0 -4.75321277437e-09)
(0 0 -4.7532127804e-09)
(0 0 -4.75321278652e-09)
(0 0 -4.75321279273e-09)
(0 0 -4.75321279903e-09)
(0 0 -4.75321280541e-09)
(0 0 -4.75321281187e-09)
(0 0 -4.75321281842e-09)
(0 0 -4.75321282504e-09)
(0 0 -4.75321283174e-09)
(0 0 -4.75321283851e-09)
(0 0 -4.75321284535e-09)
(0 0 -4.75321285227e-09)
(0 0 -4.75321285924e-09)
(0 0 -4.75321286629e-09)
(0 0 -4.75321287339e-09)
(0 0 -4.75321288055e-09)
(0 0 -4.75321288777e-09)
(0 0 -4.75321289505e-09)
(0 0 -4.75321290237e-09)
(0 0 -4.75321290974e-09)
(0 0 -4.75321291716e-09)
(0 0 -4.75321292462e-09)
(0 0 -4.75321293213e-09)
(0 0 -4.75321293967e-09)
(0 0 -4.75321294725e-09)
(0 0 -4.75321295485e-09)
(0 0 -4.75321296249e-09)
(0 0 -4.75321297016e-09)
(0 0 -4.75321297785e-09)
(0 0 -4.75321298557e-09)
(0 0 -4.7532129933e-09)
(0 0 -4.75321300105e-09)
(0 0 -4.75321300881e-09)
(0 0 -4.75321301659e-09)
(0 0 -4.75321302437e-09)
(0 0 -4.75321303216e-09)
(0 0 -4.75321303996e-09)
(0 0 -4.75321304775e-09)
(0 0 -4.75321305554e-09)
(0 0 -4.75321306332e-09)
(0 0 -4.7532130711e-09)
(0 0 -4.75321307887e-09)
(0 0 -4.75321308662e-09)
(0 0 -4.75321309436e-09)
(0 0 -4.75321310208e-09)
(0 0 -4.75321310977e-09)
(0 0 -4.75321311745e-09)
(0 0 -4.75321312509e-09)
(0 0 -4.75321313271e-09)
(0 0 -4.75321314029e-09)
(0 0 -4.75321314784e-09)
(0 0 -4.75321315535e-09)
(0 0 -4.75321316283e-09)
(0 0 -4.75321317025e-09)
(0 0 -4.75321317764e-09)
(0 0 -4.75321318497e-09)
(0 0 -4.75321319226e-09)
(0 0 -4.75321319949e-09)
(0 0 -4.75321320667e-09)
(0 0 -4.75321321379e-09)
(0 0 -4.75321322085e-09)
(0 0 -4.75321322784e-09)
(0 0 -4.75321323477e-09)
(0 0 -4.75321324163e-09)
(0 0 -4.75321324842e-09)
(0 0 -4.75321325514e-09)
(0 0 -4.75321326179e-09)
(0 0 -4.75321326835e-09)
(0 0 -4.75321327484e-09)
(0 0 -4.75321328124e-09)
(0 0 -4.75321328757e-09)
(0 0 -4.7532132938e-09)
(0 0 -4.75321329995e-09)
(0 0 -4.753213306e-09)
(0 0 -4.75321331197e-09)
(0 0 -4.75321331783e-09)
(0 0 -4.7532133236e-09)
(0 0 -4.75321332928e-09)
(0 0 -4.75321333485e-09)
(0 0 -4.75321334031e-09)
(0 0 -4.75321334568e-09)
(0 0 -4.75321335093e-09)
(0 0 -4.75321335608e-09)
(0 0 -4.75321336112e-09)
(0 0 -4.75321336605e-09)
(0 0 -4.75321337086e-09)
(0 0 -4.75321337555e-09)
(0 0 -4.75321338013e-09)
(0 0 -4.75321338459e-09)
(0 0 -4.75321338893e-09)
(0 0 -4.75321339315e-09)
(0 0 -4.75321339724e-09)
(0 0 -4.75321340121e-09)
(0 0 -4.75321340505e-09)
(0 0 -4.75321340877e-09)
(0 0 -4.75321341235e-09)
(0 0 -4.7532134158e-09)
(0 0 -4.75321341913e-09)
(0 0 -4.75321342232e-09)
(0 0 -4.75321342537e-09)
(0 0 -4.75321342829e-09)
(0 0 -4.75321343108e-09)
(0 0 -4.75321343372e-09)
(0 0 -4.75321343623e-09)
(0 0 -4.7532134386e-09)
(0 0 -4.75321344083e-09)
(0 0 -4.75321344292e-09)
(0 0 -4.75321344487e-09)
(0 0 -4.75321344667e-09)
(0 0 -4.75321344833e-09)
(0 0 -4.75321344985e-09)
(0 0 -4.75321345122e-09)
(0 0 -4.75321345244e-09)
(0 0 -4.75321345352e-09)
(0 0 -4.75321345446e-09)
(0 0 -4.75321345525e-09)
(0 0 -4.75321345589e-09)
(0 0 -4.75321345638e-09)
(0 0 -4.75321345673e-09)
(0 0 -4.75321345692e-09)
(0 0 -4.75321345697e-09)
(0 0 -4.75321345688e-09)
(0 0 -4.75321345663e-09)
(0 0 -4.75321345623e-09)
(0 0 -4.75321345569e-09)
(0 0 -4.753213455e-09)
(0 0 -4.75321345416e-09)
(0 0 -4.75321345317e-09)
(0 0 -4.75321345203e-09)
(0 0 -4.75321345075e-09)
(0 0 -4.75321344932e-09)
(0 0 -4.75321344774e-09)
(0 0 -4.75321344601e-09)
(0 0 -4.75321344414e-09)
(0 0 -4.75321344212e-09)
(0 0 -4.75321343996e-09)
(0 0 -4.75321343765e-09)
(0 0 -4.7532134352e-09)
(0 0 -4.7532134326e-09)
(0 0 -4.75321342986e-09)
(0 0 -4.75321342698e-09)