/*--------------------------------*- C++ -*----------------------------------*\
  =========                 |
  \\      /  F ield         | OpenFOAM: The Open Source CFD Toolbox
   \\    /   O peration     | Website:  https://openfoam.org
    \\  /    A nd           | Version:  7
     \\/     M anipulation  |
\*---------------------------------------------------------------------------*/
FoamFile
{
    version     2.0;
    format      ascii;
    class       volScalarField;
    location    "constant";
    object      potential;
}
// * * * * * * * * * * * * * * * * * * * * * * * * * * * * * * * * * * * * * //

dimensions      [0 1 0 0 0 0 0];

internalField   uniform  80;

boundaryField
{
    mur
    {
        type            empty;
    }
    mnt
    {
        type            empty;
    }
    wall
    {
        type            zeroGradient;
    }
    contour
    {
        type            fixedValue;
        value           nonuniform List<scalar> 
51
(
37.235
40.78
40.555
40.89
42.03
38.555
43.99
39.145
42.135
40.755
41.615
40.74
41.71
40.405
40.38
40.3
41.24
41.535
41.415
41.21
41.96
42.495
43.495
37.99
37.6
37.37
39.79
43.27
41.07
41.48
41.545
41.595
41.655
41.675
41.655
40.355
40.31
40.84
40.545
41.9
40.555
41.15
41.545
41.825
41.64
41.54
41.39
42.055
41.535
41.38
41.545
)
;
    }
}


// ************************************************************************* //
