/*--------------------------------*- C++ -*----------------------------------*\
| =========                 |                                                 |
| \\      /  F ield         | OpenFOAM: The Open Source CFD Toolbox           |
|  \\    /   O peration     | Version:  2406                                  |
|   \\  /    A nd           | Website:  www.openfoam.com                      |
|    \\/     M anipulation  |                                                 |
\*---------------------------------------------------------------------------*/
FoamFile
{
    version     2.0;
    format      ascii;
    arch        "LSB;label=32;scalar=64";
    class       volScalarField;
    location    "52";
    object      potential;
}
// * * * * * * * * * * * * * * * * * * * * * * * * * * * * * * * * * * * * * //

dimensions      [0 1 0 0 0 0 0];

internalField   nonuniform List<scalar> 
40483
(
37.8782
38.5083
37.9237
39.6419
38.1235
40.2641
40.3584
38.9989
41.1565
41.2677
40.2387
38.6954
41.9847
42.1894
41.4904
39.7688
42.752
42.5338
41.3084
39.3607
43.6773
43.9184
42.1869
40.96
44.2181
44.4725
44.5201
43.6573
41.4065
45.1514
45.3359
46.0393
44.2723
40.2701
43.3355
45.838
46.3001
46.5123
46.8003
45.6268
41.6762
43.8669
46.7054
47.589
47.8801
45.9543
40.8944
43.122
45.1078
47.494
47.9726
48.379
48.4741
48.4669
47.2423
42.8156
43.8687
45.0106
48.3492
48.9669
49.1705
49.2938
49.2805
47.3408
43.3879
45.9778
49.0964
49.686
49.867
49.9091
49.9331
48.1514
42.1869
45.1366
46.1037
49.8605
49.7288
50.4718
50.4803
50.5396
50.5626
49.1059
48.0675
43.3976
45.8356
47.3199
50.3878
50.6776
51.0048
51.0414
51.0644
51.1241
49.4321
48.8539
45.1655
42.8966
47.1325
47.7453
50.9334
50.7303
51.1289
51.4462
51.4742
51.5338
51.5699
51.227
50.0928
49.2972
45.6853
43.9716
47.961
48.908
51.2961
51.2938
51.6429
51.7924
51.8607
51.8981
52.0009
51.6856
50.0694
45.0341
46.5872
43.8672
49.1217
47.9656
49.484
51.6982
51.2229
51.839
51.9642
52.091
52.1335
52.2107
52.0316
52.2726
50.6323
45.6011
47.3839
46.3992
44.3702
49.7137
48.795
50.3824
52.0206
51.5983
52.0736
52.3638
52.3893
52.4435
52.4842
52.3401
52.6075
50.7734
45.1007
47.9017
46.9289
44.1363
49.4868
50.4143
48.6205
50.7138
52.3227
51.3891
51.9144
52.3407
52.569
52.5959
52.7145
52.5972
52.7202
44.7901
47.7266
46.6308
49.8765
50.6729
49.0017
51.1874
52.5894
51.4893
52.0277
52.3301
52.5251
52.8177
52.8103
52.9429
52.8002
52.9577
45.4288
48.124
47.2146
49.5763
50.3964
51.0811
48.7371
51.3075
52.8039
51.7671
52.1952
52.0269
52.431
52.6747
52.9136
52.8433
52.9699
53.1448
52.9841
53.1465
44.2825
47.9645
47.1468
49.7193
50.5177
51.1085
48.8548
51.6025
53.0049
51.9507
52.1638
52.341
52.5957
53.0681
52.9588
53.1072
53.2787
53.1423
53.2845
44.3888
48.4215
46.403
48.0489
49.3078
50.1556
50.8352
51.3043
51.5565
53.1558
52.0277
52.2115
52.3065
52.6427
53.1648
53.1275
52.8354
53.2298
53.3965
53.2663
53.4169
45.3579
43.1517
48.5438
46.3886
48.279
49.142
50.1264
50.8019
51.182
51.612
53.2983
52.1826
51.9768
52.3492
52.5018
53.2769
53.1993
52.8677
53.4604
53.4326
53.381
53.4692
44.8586
43.8215
45.4188
46.9122
48.95
47.7929
49.3233
50.3638
49.7492
50.6045
50.9679
51.2141
51.7776
51.3887
53.3973
52.1212
52.2799
52.4302
53.364
53.134
53.3157
52.7246
53.0128
53.55
53.498
53.5567
43.3193
45.0334
46.4834
49.2291
48.0008
50.2561
49.7058
50.6312
50.8184
51.0017
51.6987
51.3171
53.4968
52.0557
52.4178
53.3782
53.1851
53.3571
52.7842
52.5387
52.9979
53.5504
53.6209
53.5119
53.6284
53.5698
42.327
43.9639
45.5642
46.9453
49.0114
48.4819
47.6021
50.4425
49.9655
50.8122
50.9605
51.5204
51.8446
51.3745
51.1069
52.1973
53.4631
53.2942
53.1007
53.452
52.6868
52.9101
52.4379
53.5915
53.6717
53.5671
53.6891
53.641
41.871
43.4959
45.0694
46.7936
49.2615
48.3436
47.8837
50.3368
50.0052
50.5295
50.7296
51.4918
51.776
51.2075
51.0578
52.1297
53.3242
53.0763
53.5057
52.7423
52.525
52.9494
52.2499
53.6437
53.7305
53.6054
53.6892
53.7348
41.392
41.8683
42.5193
44.0399
45.4226
46.2153
47.4046
48.9629
49.7318
48.5473
47.8392
50.4857
50.6919
51.3417
51.6031
51.9283
51.2006
50.8702
53.2446
53.4135
53.133
53.5886
53.4843
52.6529
52.882
52.428
52.1726
53.6623
53.7542
53.7594
53.7444
53.7686
42.0186
43.5359
44.8572
46.4451
47.4106
49.1053
49.7684
48.2719
50.2494
50.4667
51.3153
51.5695
51.8751
51.0722
50.8187
53.2841
53.4286
53.0655
53.6289
53.5425
52.7123
52.4982
52.9388
52.2617
51.9943
53.7195
53.8013
53.8109
53.8054
42.4778
43.9546
45.1789
47.0131
46.001
47.7698
48.8709
49.4473
49.9855
48.4505
50.272
50.4352
51.4236
51.1762
51.6943
51.0742
50.9226
50.6081
53.2269
53.3781
53.5096
53.119
53.6024
53.6851
52.6219
52.8651
52.408
52.1686
51.9256
53.7289
53.8279
53.8359
53.8352
42.012
43.4503
44.6283
47.2823
46.3468
48.1357
47.6789
49.002
49.5567
49.8373
48.3833
50.0145
50.2052
51.4015
51.128
51.6702
50.9456
50.8517
50.5921
53.2694
53.4101
53.5373
53.0569
53.6562
53.7041
52.4687
52.6674
52.9321
52.2387
52.0074
51.7738
53.7819
53.8659
53.8785
53.8249
53.8695
42.5169
43.7966
44.7763
47.2478
46.062
46.9354
48.2635
47.9848
49.3513
48.7635
49.9739
50.1725
51.5281
51.3002
50.9857
51.185
50.9026
50.7243
50.4716
53.2167
53.3614
53.4876
53.6002
53.1122
53.6541
53.7618
52.3782
52.7794
52.5729
52.8842
52.1479
51.9037
51.7116
53.8912
53.897
53.8662
53.8994
42.0895
43.2943
45.4482
44.06
47.6734
46.4265
47.1959
48.5895
48.0036
49.4286
48.8436
49.7166
49.9492
50.3148
51.5604
51.2911
50.9383
51.1181
50.7541
50.6676
50.5332
53.2626
53.4035
53.5207
53.6192
53.0604
53.7017
53.7842
52.2217
52.4426
52.7916
52.6169
52.9586
51.9729
51.7529
53.9249
53.9314
53.8721
53.9294
42.5448
43.5267
45.5888
44.3201
47.6268
46.1227
46.9011
47.2022
48.6677
48.37
49.17
49.7292
49.954
50.2798
51.491
51.1785
51.3665
51.0117
50.814
50.7134
50.4329
53.3583
53.2116
53.4845
53.5878
53.6776
53.1135
53.7524
53.8367
52.1424
52.3683
52.7174
52.9023
52.5725
51.8864
51.6225
53.9479
53.9451
53.9175
53.9586
42.1044
43.2239
45.3545
43.7052
44.8395
47.8392
46.161
47.104
47.6188
48.9859
48.4459
49.2284
49.5001
50.1363
49.7719
51.1364
51.3156
50.9719
50.7877
50.5785
50.4469
53.4081
53.2381
53.5295
53.6215
53.7019
53.0738
53.7884
53.8397
52.2222
51.98
52.4569
52.6835
52.9673
51.704
51.5924
53.979
53.9804
53.926
53.9864
42.5284
45.708
43.6403
44.7468
48.1927
46.5437
46.9669
47.5475
47.7699
49.0496
48.8082
49.5391
50.1584
49.8272
51.1938
51.037
51.4166
50.8701
50.6772
50.5714
50.3157
53.4986
53.3466
53.1517
53.5983
53.6769
53.7627
53.8839
52.1506
51.9094
52.3821
52.7303
52.9557
51.641
53.9973
53.9939
53.9677
54.0158
42.0418
45.5623
44.1992
43.0182
45.1019
48.3215
46.5433
47.3042
47.638
48.1171
49.3311
48.8653
50.0269
49.669
51.1494
51.0021
51.3444
50.8519
50.6718
50.4632
50.3401
53.5607
53.3943
53.1028
53.6398
53.7129
53.7708
53.8946
52.2139
51.9989
51.753
52.4878
52.6542
52.8635
51.5015
54.0323
54.0339
53.9803
54.0433
42.3071
45.6905
44.0479
43.0725
45.1041
48.6325
46.1903
46.971
47.3151
47.9207
48.3173
49.4062
49.1808
50.0981
49.7847
51.207
51.059
50.9158
51.3837
50.7604
50.5601
50.4561
50.2497
53.5489
53.6296
53.3696
53.4821
53.1318
53.6983
53.8169
53.9494
53.8705
52.0807
51.9425
51.6943
52.4234
52.7541
52.8776
51.4653
54.0557
54.0523
54.0255
54.0805
41.7596
45.8738
45.4295
43.5538
44.3228
42.698
44.791
48.6382
46.2329
47.0089
47.6636
48.2364
47.9351
49.2085
50.0072
49.6959
51.1589
51.0255
50.8766
51.3055
50.7822
50.5338
50.332
53.6033
53.6947
53.2739
53.4579
53.5011
52.9935
53.733
53.7953
53.9694
53.9259
52.058
51.7936
51.5505
52.5932
52.2136
52.7502
51.3562
54.0976
54.0963
54.0399
54.1119
41.812
45.599
43.4152
44.0294
42.2175
42.9508
44.8634
48.9075
46.6211
45.8679
47.4005
47.7109
48.4411
48.2537
49.4543
50.1186
49.8457
51.0677
51.2154
50.9236
50.7306
50.6133
50.3913
50.2862
53.6564
53.5684
53.7028
53.3222
53.5037
52.9325
53.8377
54.0143
53.9394
51.8557
51.7325
51.5116
52.566
52.1477
51.3379
54.1211
54.1122
54.0823
54.1537
45.5521
43.6119
44.1662
41.9292
42.7863
44.5369
45.2102
48.8004
46.6967
45.7527
47.4879
48.0697
48.3374
49.5123
50.0372
49.752
51.0286
51.161
50.8966
50.7625
50.593
50.3354
53.7021
53.578
53.7434
53.2763
53.432
53.4962
52.9689
53.9016
53.8347
54.0459
54.0021
51.8016
51.5896
51.4131
52.7592
52.3307
51.9323
51.2624
54.1671
54.1589
54.0909
54.1866
43.3824
43.9521
42.0775
42.4181
43.0239
44.4985
45.194
48.9185
46.3207
47.164
45.916
45.43
47.8788
48.1478
48.6508
49.4597
50.1504
49.7773
50.9486
51.0707
51.19
50.8261
50.6775
50.5197
50.4091
53.7014
53.6382
53.7956
53.4007
53.1393
53.4633
53.5613
53.9241
53.8901
54.0473
54.0133
51.6447
51.556
51.3827
52.7246
52.2664
51.8763
51.2529
54.19
54.173
54.134
54.2348
43.4261
43.6446
44.1607
41.8125
42.3282
42.8919
44.6764
44.9538
49.1714
46.337
47.3533
45.6695
45.3182
47.994
48.4908
48.7257
49.3574
49.6262
50.0978
49.9243
50.9189
51.0302
51.1401
50.8056
50.6731
50.5443
50.3283
53.7557
53.6306
53.8192
53.4422
53.1317
53.5416
53.9729
53.9052
54.103
54.0787
51.5998
51.4448
51.3009
52.9312
52.4488
52.0217
51.6987
51.181
54.2422
54.2242
54.1444
54.2701
43.1209
43.4678
44.0619
41.9917
42.5639
44.5501
45.06
49.1495
46.559
46.077
47.3096
47.789
45.3941
45.8037
48.3074
48.5452
48.9567
49.54
50.1976
49.9192
50.9591
50.8517
51.0696
50.7361
50.6167
50.5039
50.352
53.8007
53.7616
53.6733
53.862
53.5584
53.3746
53.2493
53.5897
53.9858
53.8909
53.9504
54.1215
54.0927
51.4682
51.4026
51.2583
52.9427
52.3506
51.9444
51.6342
51.1809
54.2634
54.2366
54.1957
54.33
43.1395
43.6917
44.2737
41.7812
42.4492
44.7091
44.9446
49.2642
46.9544
46.3897
46.1554
47.7529
47.9468
45.1529
45.7826
48.4149
48.7841
49.092
49.5986
50.167
49.7801
50.0525
50.9327
50.8296
51.0343
50.7233
50.6151
50.5534
50.428
50.2549
53.8343
53.8122
53.7283
53.6534
53.8649
53.6317
53.3811
53.2494
54.0407
53.9236
53.9572
54.1757
54.1673
51.4248
51.2975
53.1521
52.707
52.0778
52.4402
51.7351
51.4957
51.1267
54.3199
54.289
54.2072
54.3623
42.8045
43.6751
44.2689
42.0121
44.5532
49.4522
47.1499
46.4686
46.0463
48.0241
48.2561
45.0432
45.6074
48.6975
49.0442
49.8093
50.0382
50.9709
50.8721
50.7695
51.062
50.6623
50.5373
50.4019
50.2401
53.841
53.8243
53.7453
53.7025
53.8982
53.6255
53.7056
53.417
54.0424
53.9279
53.9942
54.2061
54.1709
54.2168
51.3167
51.2561
53.2543
52.7172
51.9881
52.1812
51.6347
51.4293
51.1388
54.334
54.2946
54.2534
54.4244
42.7876
43.3808
44.0314
41.8142
44.6688
49.5553
46.7908
47.6196
46.3821
46.1743
48.0109
48.3488
45.2547
45.7729
48.8266
49.2266
49.9272
49.7202
50.1328
50.9651
50.8559
50.7546
51.018
50.6557
50.4578
50.5921
50.3179
53.8851
53.864
53.7906
53.527
53.6997
53.7632
54.0969
53.9742
54.2546
54.2375
54.2763
51.3182
51.1895
53.1999
52.9434
52.4122
51.753
52.1559
51.4743
51.102
54.3886
54.3408
54.4683
54.437
42.4645
43.031
43.4965
44.0749
42.0787
44.4416
49.4561
46.9224
47.3804
46.49
46.1786
48.412
48.6449
45.1321
45.6968
46.0427
49.1081
49.8997
49.7823
50.1095
50.9095
50.7966
50.696
51.0446
50.4408
50.5718
50.2898
53.8967
53.8752
53.8022
53.566
53.6717
53.7478
53.7732
54.0942
53.9956
54.2884
54.2142
54.3232
54.3254
51.2572
51.1475
53.3167
52.9121
52.4181
51.6834
51.8763
51.3937
54.3901
54.3335
54.5345
54.4942
42.7303
43.3252
43.8289
41.8332
44.4849
49.5656
46.726
47.6249
46.3911
48.4234
48.7201
45.4212
44.7968
45.9797
46.1643
49.1875
49.9357
49.7796
50.0172
50.1903
50.9031
50.7715
50.6744
51.0174
50.3566
50.4998
50.6118
53.9329
53.8474
53.9174
53.486
53.7118
53.7884
53.8097
54.1457
54.0488
53.9728
54.2766
54.3952
54.3562
54.3677
51.1895
51.288
51.1461
53.1525
52.6872
52.1586
51.4942
51.877
51.3924
54.4379
54.5861
54.5473
54.4936
42.7156
43.0286
43.5458
43.838
42.0045
44.1301
49.7073
49.5167
46.7556
48.1269
47.4154
46.5319
48.7227
48.9802
45.3645
44.7899
46.0266
46.4385
49.3683
49.8675
49.9915
50.1571
50.8418
50.9552
50.788
50.709
51.0537
50.3405
50.4759
50.5841
53.8635
53.9326
53.5552
53.7724
53.669
53.8014
53.8436
54.1149
54.06
54.0168
54.2575
54.372
54.5007
54.447
54.4231
51.1401
51.2358
51.1017
53.1136
52.7869
52.1882
51.4312
51.7038
51.2832
54.6599
54.6096
54.5456
42.3921
43.01
43.3679
41.6171
44.1731
49.7523
49.6044
46.9652
48.2985
47.723
48.6462
48.9741
45.0587
45.5623
44.5083
46.2944
45.8188
46.5942
49.3561
49.8992
50.0487
50.235
50.8341
50.9555
50.7329
50.6875
51.0153
50.4038
50.5185
50.6258
53.9049
53.9771
53.4898
53.7988
53.7137
53.8365
53.8679
54.1281
54.0189
54.3246
54.1869
54.4556
54.5976
54.5155
54.4684
51.1561
53.2911
52.5473
51.9706
51.3078
51.511
51.76
51.2531
54.7216
54.6705
54.6079
54.5352
42.432
42.7549
43.5001
41.8062
43.8924
49.704
49.8506
49.5891
46.7967
48.1841
47.6067
48.7846
49.1721
45.0305
45.4945
44.5739
46.2777
46.5369
45.8773
46.7944
49.4896
49.9969
50.2246
50.7723
50.8655
50.9174
50.7242
51.0206
50.3989
50.4757
50.5926
53.9173
53.9828
53.57
53.7774
53.8405
53.6721
53.8508
53.8599
53.8999
54.0742
54.4269
54.2748
54.1908
54.5766
54.7311
54.5917
51.1241
53.3202
52.5389
51.936
51.2506
51.4458
51.6411
51.1728
54.8094
54.7425
54.6654
54.5869
42.1959
42.6899
43.3042
41.6835
43.9995
49.7342
49.8903
49.6663
47.1876
48.5465
47.47
48.2655
49.081
45.2655
44.8137
45.6857
44.4938
46.4804
46.0561
46.7648
47.0166
49.4992
50.0208
50.325
50.1192
50.7654
50.8235
50.9338
50.6468
51.0665
50.9784
50.5056
53.9513
54.0281
53.5114
53.8093
53.8687
53.6964
53.8807
53.8863
53.921
54.0777
54.5251
54.2963
54.1362
54.6834
54.8528
54.7556
54.6789
53.1961
52.8337
52.1372
51.7248
51.1714
51.2756
51.5181
51.3574
54.8891
54.8197
54.7377
54.6539
42.3469
42.9321
43.4925
41.3151
42.1093
44.3008
43.7923
49.7991
49.8634
49.6754
47.233
48.6295
47.7378
48.3719
49.1947
45.2845
44.7383
45.7214
46.7204
46.4193
45.9679
46.9937
49.3925
49.6043
49.9344
50.3307
50.1346
50.7034
50.8457
50.9035
50.6316
51.0544
50.9832
50.4382
53.9517
54.0271
53.6055
53.8058
53.8582
53.9064
53.7628
53.9083
53.9155
54.6607
54.5084
54.2192
54.3972
54.1437
54.8213
55.0207
54.8626
54.7137
53.3027
52.8259
51.9801
51.6288
51.1257
51.2394
51.4388
51.3597
54.9888
54.9034
54.8083
42.943
43.3077
41.4253
42.1045
44.376
43.9495
49.8134
49.7537
47.4507
48.9901
47.6791
48.085
48.6423
45.1127
45.5482
44.8516
46.9169
46.6139
46.1207
47.1982
49.4314
49.6137
49.9012
50.2476
50.061
50.6653
50.7998
50.9282
50.5483
51.0134
51.077
50.9621
50.4549
53.9832
54.0818
53.6079
53.853
53.8808
53.9524
53.7768
53.9414
53.943
54.7791
54.6412
54.2423
54.4003
54.9548
55.0602
55.1445
54.8605
54.971
54.7926
53.4892
53.1338
52.6902
52.077
51.7036
51.4783
51.1376
51.2977
51.1865
55.082
54.9929
54.8946
42.7202
43.4435
41.1949
41.7605
42.3646
44.2245
44.6755
43.9103
49.768
47.4264
49.1259
47.9198
48.1633
48.8575
48.6709
45.2645
45.5353
46.8611
47.1552
46.5449
45.9926
49.3422
49.5417
49.6927
49.9482
50.2553
50.1391
50.7049
50.5626
50.8196
50.9296
51.0115
51.0462
50.9845
50.3544
53.9798
54.0851
53.7195
53.8703
53.9254
53.9912
53.9656
53.8409
53.977
54.7701
54.926
54.6253
54.2225
54.3217
54.4989
55.1049
55.1966
55.3085
54.9508
55.0226
53.5148
53.1472
52.9233
52.4008
51.8491
51.5979
51.4187
51.0984
51.2863
51.1914
55.1906
55.0837
54.9707
42.8586
43.2091
43.7338
40.9083
41.4044
41.7247
42.2338
44.3329
44.7636
44.1622
49.8713
47.6128
49.0167
47.8712
48.4553
48.9291
48.8468
45.2396
45.7018
47.0361
47.35
46.2137
46.7533
49.4178
49.529
49.7055
50.1285
50.6539
50.4761
50.7612
50.8689
50.974
50.9108
51.0547
50.3601
54.0261
54.1593
53.7445
53.919
53.9465
54.0572
54.0359
53.875
54.0253
54.8769
55.0386
54.7489
54.3029
54.4726
55.2444
55.2085
55.3254
55.3758
55.3935
55.1252
53.6677
53.3572
52.836
52.4738
51.662
51.9273
51.4768
51.3359
51.1182
51.2346
51.1622
55.2997
55.1877
55.0688
42.6667
43.2408
43.896
40.6962
41.3089
41.9261
42.3902
44.5727
45.028
44.1675
49.8918
47.5711
49.1721
48.0096
48.496
49.0698
48.9846
45.5279
47.2807
46.9835
46.1078
46.7509
49.4093
49.5556
49.6621
49.8026
50.0136
50.2524
50.5524
50.6913
50.4687
50.783
50.872
50.9901
50.9368
51.0288
54.1943
53.8446
53.9578
54.0096
54.0811
54.109
54.1017
54.0619
53.9504
54.907
54.9943
55.2089
54.8786
54.7135
54.3551
54.5646
55.3285
55.4086
55.5498
55.581
55.1525
53.7222
53.4001
53.1293
52.2425
51.6094
51.8123
51.4518
51.3241
51.0875
51.2345
51.1938
55.4185
55.2884
42.7191
43.4661
42.95
43.9501
40.7687
41.5171
41.0391
41.8233
42.279
44.732
45.0196
44.3373
47.7187
49.3117
47.9002
48.2629
48.7733
49.0125
45.5631
47.4136
47.1266
46.2751
45.8114
46.9691
46.5375
49.4902
49.6045
49.6841
49.8023
50.0376
50.2548
50.5424
50.6306
50.3563
50.7524
50.8414
50.916
50.9718
51.0397
54.1597
54.3119
53.9137
54.0259
54.22
54.2203
54.1763
54.0345
55.027
55.3296
55.0184
54.7988
54.5419
55.3632
55.5615
55.6462
55.6624
55.6642
55.2664
53.8793
53.6412
53.1689
52.3443
51.5278
51.6841
51.8799
51.3856
51.274
51.1268
51.2168
55.5434
55.4108
42.4745
43.2995
43.7764
42.997
44.2444
40.6415
41.3442
40.9044
42.0116
44.6158
45.2684
47.7405
49.3482
47.9563
48.2313
48.7611
49.1849
47.3171
47.6241
47.1081
46.1
45.8325
47.0105
46.6292
49.4928
49.5949
49.6371
49.7313
49.865
49.9639
50.1576
50.4726
50.6233
50.318
50.8024
50.6829
50.8504
50.9331
51.0034
54.2434
54.3607
54.0448
54.1044
54.2962
54.2709
54.2729
54.2745
54.1363
55.1016
55.252
55.5382
55.0811
54.6844
54.9709
54.4527
55.4937
55.6086
55.8705
55.855
55.839
54.0068
53.86
52.7807
53.5745
52.0818
51.5587
51.7081
51.7902
51.4036
51.2756
51.0987
51.2062
55.6603
55.5192
42.4115
43.2874
43.9299
42.8268
44.4522
40.4456
40.7077
41.5447
41.0001
41.9227
44.7269
45.2964
47.8748
49.3104
49.4391
48.0614
48.3495
48.5574
48.9233
49.1943
47.3769
47.6826
47.2552
46.2068
45.6136
47.1822
46.8729
46.4794
49.5472
49.6509
49.7154
49.8389
49.9833
50.1939
50.3693
50.5263
50.7958
50.6645
50.8998
50.988
54.3271
54.2194
54.2362
54.4335
54.4082
54.4634
54.5079
54.3272
55.3667
55.6348
55.2804
54.7495
55.0421
54.4187
55.7557
55.9673
55.9954
55.9409
55.9168
54.2448
53.9185
53.0557
53.5881
52.0893
51.5097
51.6659
51.8762
51.3416
51.018
51.1644
51.2961
55.7852
55.6448
42.5702
42.1261
43.4742
42.9794
44.1751
43.9054
44.4088
40.4949
41.469
40.7656
45.0231
47.9722
49.3943
49.4535
48.2414
48.5805
48.8621
49.095
49.3199
47.4835
47.5956
47.8323
47.2884
46.0341
45.701
47.2485
46.9354
46.6182
49.5197
49.6239
49.7604
49.9002
50.0429
50.1364
50.2961
50.5073
50.8548
50.7284
50.5854
50.9095
54.4262
54.4221
54.4895
54.5484
54.581
54.5947
54.7227
55.534
55.7897
55.4127
54.6598
54.9319
55.2068
55.7613
55.876
56.177
55.9366
56.2064
56.1521
56.0861
54.5515
54.2992
52.9381
53.9122
52.3738
51.5541
51.7473
51.8707
51.3734
50.9756
51.2817
51.134
51.3421
55.911
42.397
42.1172
43.3471
43.7654
42.817
44.1471
44.6052
40.401
41.8563
40.9833
40.4858
40.6819
45.0859
47.9688
49.398
48.3099
48.0851
48.4516
48.7163
48.945
49.1445
49.333
47.5138
47.6134
47.8266
47.4392
46.2362
45.4447
47.398
47.1266
46.8336
46.5396
49.5304
49.6275
49.5731
49.7379
49.9107
49.9993
50.1858
50.3279
50.4221
50.8532
50.7185
50.5819
54.7728
54.6816
54.705
54.8049
54.8162
54.9848
55.6615
55.8053
55.6258
55.3733
54.7651
55.0403
55.205
55.8997
56.0052
56.282
56.296
56.0625
56.3246
56.218
56.1297
54.594
54.8681
54.2746
53.3674
53.7778
52.2327
51.657
51.4781
51.7472
51.8227
51.9951
50.9875
51.3497
51.202
51.0537
51.4928
56.0541
42.4801
43.4616
43.0005
43.9075
44.285
44.5081
44.8665
42.0911
40.6629
40.8165
40.3656
40.4231
49.4699
48.231
48.0436
48.4889
48.7159
49.0628
48.8505
49.2551
49.413
47.7092
47.9247
47.484
46.1819
45.4346
47.4544
47.1411
46.9681
46.7257
49.6652
49.5766
49.7896
49.8662
50.0274
50.1208
50.2565
50.4412
50.7833
50.9163
50.6494
50.5195
55.0738
55.0103
54.8499
54.975
54.9547
55.0422
55.2847
55.1063
55.961
55.7661
55.5665
54.9414
55.0538
55.338
56.0226
56.5145
56.5162
56.2399
56.5504
56.4306
56.285
54.9324
55.2235
54.4942
53.5107
54.1353
52.5803
51.6616
51.547
51.8139
51.8842
51.9602
51.2938
51.4706
51.1798
51.0501
51.5521
56.1839
43.6551
43.2902
42.9835
43.8317
44.1174
44.2474
44.666
44.8983
41.9748
41.0846
49.4743
48.1169
48.2783
48.3967
48.6171
49.1297
48.836
49.2493
49.4212
47.6972
47.9182
47.5998
45.8011
46.5108
45.0941
47.5686
47.4022
47.2655
46.9305
46.7303
49.6483
49.5377
49.7795
49.8948
49.9687
50.1584
50.2901
50.3801
50.7802
50.9165
50.6376
50.5583
55.4672
55.3497
54.9985
55.2784
55.1767
55.4048
56.0401
55.7437
55.957
55.5384
55.2628
56.1668
56.6304
56.6414
56.6553
56.3705
56.7226
56.4492
56.6106
56.3052
54.8109
55.219
55.5036
53.2803
54.0813
52.4479
51.7363
51.8067
51.8688
51.8909
52.0226
51.3256
51.5157
51.2482
51.1147
50.9825
51.6627
56.3258
43.6969
43.4048
42.7437
43.9991
44.2702
44.4026
44.5971
41.4768
42.317
48.0789
48.2201
48.4271
48.6786
49.0801
48.9334
49.3207
49.4768
49.3902
47.7696
47.8509
47.9949
47.6245
45.8542
46.5613
44.8817
47.6176
47.4866
47.233
47.0703
46.9719
49.612
49.6744
49.5345
49.8462
49.7298
49.9795
50.1094
50.2369
50.4249
50.8487
50.7031
50.5226
55.7665
55.7191
55.2151
55.5452
55.378
55.4596
55.7041
56.2658
55.9399
56.0649
55.7308
55.365
56.9004
56.8686
56.9011
56.6275
56.9891
56.6576
56.8416
56.4647
54.8938
55.4362
55.7431
53.691
54.482
52.1878
52.9334
51.7351
51.8447
51.8965
51.9442
51.9894
51.4261
51.6117
51.2114
51.1201
50.9857
51.6772
56.4684
43.6102
43.9017
43.2917
42.9475
44.2307
41.4541
41.9449
48.1319
48.2597
48.3491
48.5283
48.6404
49.1623
48.8718
49.2822
49.4474
47.7524
47.8676
47.9836
47.6963
45.5662
46.2994
46.8439
44.8565
47.5864
47.6924
47.4729
47.3607
47.0252
49.6365
49.5749
49.8649
49.7638
49.9245
50.0349
50.1551
50.2504
50.3906
50.8562
50.7109
50.5667
56.0751
56.0475
55.9315
55.7294
55.7643
56.0548
56.4097
56.0363
56.282
55.9539
55.7492
55.5995
57.0328
57.0077
56.9927
57.0674
56.7867
57.1754
56.6545
56.8703
55.2029
55.6828
56.0091
54.33
53.5017
52.1782
53.0354
51.8043
51.8438
51.8833
51.9383
51.9589
52.0549
51.4376
51.6548
51.2548
51.0589
50.9263
51.7393
56.6206
43.6723
43.9503
43.4414
42.7933
44.4613
41.9727
48.0971
48.208
48.3818
48.549
48.7338
49.0971
48.953
49.3344
49.4702
47.8141
47.9218
48.0315
45.6895
45.1468
46.378
46.9063
47.6182
47.7462
47.5576
47.3467
47.2047
49.6211
49.5675
49.8337
49.7457
49.9406
50.0043
50.1252
50.1793
50.3098
50.4443
50.7942
50.6505
50.5227
56.3467
56.3652
56.0198
56.2148
55.801
56.1283
56.4506
56.6745
56.3277
56.455
56.1499
55.993
57.3127
57.2484
57.2171
57.3322
57.0696
57.4473
56.8089
57.1198
55.1292
55.8254
56.0933
54.6433
53.9545
52.3927
53.7184
52.8151
51.7969
51.8766
51.8988
51.9679
52.025
51.5203
51.3564
51.6142
51.7306
51.2
51.0425
50.9523
56.7744
43.809
43.6119
44.1532
43.3555
42.3745
43.0685
44.4124
48.1324
48.2287
48.3518
48.4835
48.6673
49.1393
48.8864
49.4207
49.2968
49.5339
47.812
47.9385
48.0016
45.9435
45.4089
45.0966
46.1997
46.6073
46.7878
47.0929
47.6787
47.7368
47.5734
47.4494
47.2185
49.6294
49.8874
49.6819
49.8123
50.049
50.1682
50.2959
50.3789
50.8132
50.6713
50.59
56.5525
56.6366
56.3864
56.6225
56.0465
56.471
56.7101
56.8446
56.4884
56.7489
56.1681
56.3834
57.5131
57.4685
57.4346
57.5254
57.2116
57.6283
57.008
57.1584
57.4196
55.3273
55.6766
56.2895
54.4833
52.3509
53.9946
53.1992
51.8268
51.8888
51.9249
51.9557
52.0256
52.0642
51.484
51.3922
51.6567
51.7826
51.0985
51.2549
50.9007
56.9541
43.745
44.2745
43.5473
42.2608
42.9431
44.6116
48.0965
48.1815
48.2911
48.406
48.4854
48.7379
49.2261
49.0659
48.9541
49.4209
49.3472
49.5693
47.8522
47.9071
48.0315
45.8445
45.5179
44.8811
46.3978
46.5875
46.8693
47.1105
47.6809
47.7915
47.6362
47.5325
47.43
47.333
49.8838
49.679
49.8097
50.0312
50.0967
50.2254
50.3867
50.7502
50.5862
56.8096
56.5215
56.8589
56.5591
56.706
56.8195
56.782
56.3791
57.0625
57.0941
56.784
56.993
56.4915
56.6019
57.8071
57.6813
57.6792
57.7976
57.4654
57.8657
57.628
57.0966
57.4137
57.6714
54.9396
55.8003
56.1481
52.6158
52.1835
54.592
53.7217
53.2337
51.8721
51.9203
51.8925
51.9987
52.0673
51.5223
51.3464
51.6011
51.7334
51.7889
51.0675
51.2068
50.9251
43.7652
44.531
44.2239
43.5172
42.5472
43.2086
48.1227
48.1991
48.2931
48.3969
48.5349
48.7011
49.2043
49.114
48.8962
49.4834
49.2805
49.5577
47.8404
47.9222
48.0096
46.0731
45.3193
44.997
46.3632
46.7401
46.998
47.2226
47.7264
47.7787
47.635
47.5829
47.5068
47.3249
49.9542
49.6142
49.74
49.8776
50.0973
50.1817
50.2869
50.4886
50.7776
50.6959
56.9627
56.7463
57.1253
56.9585
57.0648
57.2542
57.1606
56.6612
57.2813
57.2966
56.8541
57.0142
57.2851
57.9765
57.9282
57.9071
57.9173
57.9624
57.5223
57.9796
57.8555
57.3091
57.4702
57.6311
57.9476
54.9915
55.4906
56.2836
52.5822
52.9864
52.2243
54.7609
54.0333
53.7772
51.8913
51.9259
52.0034
52.0513
52.1499
51.4797
51.3943
51.6074
51.7462
51.8537
50.9965
51.1228
51.2513
50.861
43.9757
44.7658
44.5187
43.7343
42.5575
43.1878
48.0877
48.2502
48.17
48.3435
48.4451
48.6154
48.503
48.7883
49.0542
48.9477
49.4971
49.2568
47.8797
47.9617
48.039
45.9308
45.4927
46.5765
46.7536
47.0343
47.1774
47.7181
47.8143
47.673
47.5744
47.4912
47.4033
49.9514
49.5919
49.7297
49.874
50.0289
50.1959
50.2783
50.4816
50.7069
57.2381
56.6656
57.3572
57.2061
57.1378
57.3512
57.5617
57.5482
57.1106
57.6435
57.2035
57.3566
57.5693
58.2622
58.2201
58.0558
58.043
58.2108
57.8235
58.1885
57.9933
57.7214
57.822
58.1433
55.5581
55.99
52.9309
52.3955
53.236
55.2024
54.4759
54.1143
51.9302
51.9598
52.0735
52.1091
52.1759
51.5313
51.3479
51.6772
51.8099
51.8627
50.999
51.0746
51.191
50.9152
43.9768
44.8059
44.5239
43.709
42.2402
42.8859
43.4765
48.1165
48.26
48.1866
48.3429
48.4332
48.6156
48.5494
48.7538
49.0537
48.8981
49.4297
49.1298
49.3147
47.8854
47.9604
48.0066
46.1926
45.2155
46.6638
46.9236
47.2427
47.7553
47.7991
47.8586
47.6665
47.6199
47.5286
47.4218
49.6439
49.7958
49.9481
50.0298
50.1109
50.3673
50.185
50.5901
50.8165
57.4052
56.8579
57.6938
57.5031
57.3307
57.4649
57.6888
57.9807
57.9382
57.3755
57.9382
57.8115
57.4755
57.618
57.8776
58.3971
58.4878
58.3647
58.324
58.3871
58.3474
58.237
57.8719
58.0575
58.4632
56.0091
53.0256
52.39
53.8116
55.2117
54.7726
54.6642
51.9569
51.9631
52.1313
52.1221
52.259
51.4998
51.4002
51.6694
51.8414
51.91
51.0971
51.2296
50.9139
44.2221
44.8779
43.9175
42.2292
42.9768
43.5735
48.1122
48.303
48.2262
48.1582
48.3847
48.4756
48.6707
48.534
48.8111
48.9539
49.4941
49.1122
49.2233
47.9271
48.0055
46.5574
46.0927
45.2841
46.9002
47.3686
47.1908
47.7385
47.832
47.8844
47.696
47.6281
47.5741
47.4918
49.6146
49.782
49.9418
50.1066
50.3444
50.1727
50.5989
50.8191
57.8136
57.233
56.6706
57.963
57.7806
57.7271
57.7314
58.0105
58.3349
58.3108
57.7473
58.2239
58.1593
57.8482
57.9834
58.168
58.7899
58.8611
58.7533
58.5502
58.6239
58.7364
58.5715
58.1401
58.2351
58.7194
55.5625
56.3163
52.7842
53.4813
52.5318
54.131
55.0822
51.9913
51.9791
52.2285
52.2633
52.1093
51.567
51.3449
51.7428
51.9038
51.8226
51.9623
51.0184
51.1473
44.1805
44.8299
43.8715
42.0064
42.4598
43.368
42.7691
48.0865
48.3071
48.2392
48.1584
48.3787
48.4575
48.6502
48.5811
48.7782
48.9141
49.4498
49.0191
49.2271
47.9242
47.9567
48.042
46.7327
46.4063
45.6955
47.0374
47.4016
47.309
47.7622
47.8747
47.8297
47.6767
47.6109
47.5826
47.5391
49.6888
49.8549
50.0182
50.408
50.2415
50.0823
50.7163
50.5098
50.9349
58.043
57.3932
56.8457
58.3994
58.0793
58.0285
58.0688
58.3797
58.7148
58.6811
58.0074
57.9807
58.5908
58.4584
58.0937
58.0567
58.2228
58.5746
59.0105
58.9566
59.0883
58.9504
58.9387
59.029
58.9323
58.8078
58.3247
58.5593
59.1328
55.5301
56.2525
52.9164
53.5949
53.9249
52.4799
54.7944
55.2523
52.0442
52.0508
52.3145
52.3525
52.2006
51.525
51.3983
51.7579
51.9637
51.8859
52.0087
51.034
51.1873
44.4239
45.325
44.1942
42.0098
42.3331
43.5051
42.8969
48.117
48.3402
48.2775
48.2214
48.1875
48.4105
48.4998
48.7011
48.565
48.8255
48.9368
49.5261
49.3303
49.0231
49.1204
47.9477
48.0268
46.6696
46.9697
46.2458
45.7799
47.4754
47.3154
47.802
47.7538
47.9058
47.864
47.6769
47.6405
47.6228
47.5363
49.6786
49.8313
50.0061
50.3284
50.2328
50.0715
50.7209
50.549
50.9304
57.7929
58.4972
57.1517
56.5883
58.6989
58.4087
58.4072
58.3951
58.727
59.0895
59.0837
58.233
58.7938
58.4293
58.4342
58.6578
58.9472
59.3836
59.3288
59.4642
59.315
59.1762
59.2787
59.4631
59.4658
58.6719
58.8279
59.3978
55.9048
52.6871
53.2711
54.1015
54.4397
55.2013
54.9269
55.8039
52.1222
52.5297
52.3002
52.263
51.5947
51.3251
51.707
51.8591
51.9676
52.1
51.1162
45.143
44.3718
41.8722
42.1208
42.4851
43.2584
44.036
42.7637
48.1083
48.3412
48.275
48.2453
48.1842
48.3824
48.4881
48.6828
48.6165
48.8034
48.8657
49.4689
49.6112
49.353
48.9381
49.1399
47.9811
48.0634
46.8799
47.0456
46.5753
47.5041
47.4049
47.1988
47.8085
47.7833
47.7298
47.8987
47.8633
47.697
47.6493
47.5835
49.747
49.9068
50.3367
50.155
49.9787
50.6409
50.8179
50.5394
51.0062
57.9253
58.7313
57.157
56.741
59.1638
58.7416
58.7698
58.7399
59.1107
59.4253
59.5212
58.5573
59.1676
58.565
58.7939
58.6926
58.9608
59.5093
59.5367
59.607
59.4895
59.6989
59.622
59.561
59.6738
59.7613
59.784
58.976
59.2561
59.8043
52.7092
53.5233
54.2916
54.5113
55.7787
55.5017
56.0597
52.2451
52.6313
52.3767
51.5727
51.3665
51.7637
51.9195
52.046
52.173
51.1785
45.4896
41.8073
41.9855
42.4922
43.5
44.3244
42.9625
48.1475
48.3056
48.2222
48.3906
48.5472
48.4356
48.7375
48.6111
48.8624
49.552
49.6822
49.2679
48.9488
49.0524
47.9717
48.0525
46.8953
46.5795
47.566
47.4795
47.4074
47.227
47.8357
47.7859
47.7334
47.9308
47.8927
47.6852
47.6336
49.8879
50.2415
50.4564
50.153
49.9757
50.633
50.8187
50.9325
58.4124
57.499
59.2154
56.535
59.4452
59.3556
59.0762
58.8386
59.1071
59.1065
59.4295
59.8357
59.9432
59.548
58.9847
59.1927
59.1037
59.5994
59.8531
59.9042
59.9773
59.8606
60.0743
59.9797
59.808
59.9344
60.3714
60.3821
59.4092
59.5405
60.0805
52.9724
54.0329
53.3494
54.8306
55.0801
56.04
55.5869
55.971
52.4256
52.5281
52.8816
51.6903
51.4791
51.2929
51.8784
52.0279
52.1401
52.299
51.1032
46.1682
45.0276
41.6091
42.0248
42.3081
42.8402
44.0376
43.3465
48.1379
48.3154
48.2282
48.3588
48.5411
48.4292
48.7306
48.6679
48.7933
49.6779
49.5495
49.3137
48.847
49.0864
48.0062
48.0873
47.0972
46.8777
47.597
47.5203
47.4822
47.3391
47.8314
47.8073
47.7689
47.7485
47.7075
47.9265
47.9049
47.6626
49.7814
50.2088
50.4787
50.0665
49.8763
50.7165
50.9714
58.5912
57.3773
59.4393
56.8096
59.9404
59.8195
59.3684
59.2564
59.4709
59.4009
59.7656
60.0393
60.3934
59.9473
59.2964
59.6859
59.4186
59.9144
60.4465
60.1217
60.0681
60.2091
60.3219
60.4663
60.1936
60.3314
60.6762
60.7109
60.6997
59.7195
59.9586
60.4856
54.4805
53.7749
55.2225
54.9837
56.5915
56.2028
56.5424
52.4279
52.6473
52.6665
53.0269
51.7534
51.4588
51.3464
51.9625
52.1225
52.2451
52.3436
51.165
46.2208
45.2061
41.4734
41.8492
42.4843
43.1515
44.4007
43.9084
48.1659