/*--------------------------------*- C++ -*----------------------------------*\
| =========                 |                                                 |
| \\      /  F ield         | OpenFOAM: The Open Source CFD Toolbox           |
|  \\    /   O peration     | Version:  2406                                  |
|   \\  /    A nd           | Website:  www.openfoam.com                      |
|    \\/     M anipulation  |                                                 |
\*---------------------------------------------------------------------------*/
FoamFile
{
    version     2.0;
    format      ascii;
    arch        "LSB;label=32;scalar=64";
    class       volVectorField;
    location    "52";
    object      U;
}
// * * * * * * * * * * * * * * * * * * * * * * * * * * * * * * * * * * * * * //

dimensions      [0 1 -1 0 0 0 0];

internalField   nonuniform List<vector> 
40483
(
(-1.66634e-08 -1.02172e-07 0)
(-1.93294e-08 -1.02182e-07 3.71087e-21)
(-2.9082e-08 -8.84707e-08 1.75392e-21)
(-2.34184e-08 -9.67504e-08 2.29958e-21)
(-2.25992e-08 -8.11818e-08 -4.11927e-21)
(-1.77811e-08 -9.94308e-08 5.09827e-21)
(-2.71148e-08 -9.52719e-08 -1.60462e-21)
(-4.4547e-08 -8.49035e-08 -1.96669e-21)
(-1.87949e-08 -9.68491e-08 -1.08865e-21)
(-2.15329e-08 -9.66787e-08 0)
(-3.05324e-08 -9.29818e-08 0)
(-4.79656e-08 -8.82118e-08 0)
(-1.69656e-08 -9.48856e-08 -3.22878e-22)
(-2.19749e-08 -9.39383e-08 1.55441e-21)
(-3.4308e-08 -9.00455e-08 -4.45299e-21)
(-5.48741e-08 -8.77784e-08 0)
(-1.91891e-08 -9.26959e-08 3.34067e-21)
(-2.61766e-08 -9.5213e-08 -4.22993e-21)
(-3.9525e-08 -9.75616e-08 0)
(-6.58937e-08 -1.08207e-07 -1.34979e-21)
(-2.06202e-08 -8.87238e-08 4.61937e-21)
(-2.48483e-08 -9.13846e-08 0)
(-4.32141e-08 -9.5225e-08 8.58734e-22)
(-4.61681e-08 -1.02405e-07 1.76936e-21)
(-1.61933e-08 -9.07359e-08 3.30339e-21)
(-2.25105e-08 -8.63434e-08 1.06674e-21)
(-2.62786e-08 -8.64585e-08 2.71506e-21)
(-2.82884e-08 -9.51848e-08 2.95381e-21)
(-6.13382e-08 -1.16659e-07 -1.39444e-22)
(-1.81056e-08 -8.84007e-08 -1.50841e-23)
(-1.99877e-08 -8.49328e-08 -6.39396e-22)
(-2.20209e-08 -8.31263e-08 -2.47147e-21)
(-3.19632e-08 -9.34423e-08 -6.7534e-22)
(-5.96578e-08 -1.71371e-07 0)
(-2.87679e-08 -1.17766e-07 -1.71938e-21)
(-1.5641e-08 -8.76191e-08 -1.76654e-23)
(-1.89933e-08 -8.21537e-08 -1.10703e-22)
(-2.30615e-08 -7.74688e-08 -2.05196e-21)
(-1.99634e-08 -7.78899e-08 -2.28508e-21)
(-2.09086e-08 -9.03755e-08 4.05945e-22)
(-3.48369e-08 -1.43445e-07 6.64372e-23)
(-2.89697e-08 -1.10847e-07 -8.41519e-22)
(-1.58141e-08 -8.4848e-08 4.20739e-22)
(-1.79232e-08 -7.39949e-08 3.5322e-21)
(-1.95065e-08 -7.45693e-08 -2.19028e-21)
(-2.38136e-08 -8.845e-08 2.04399e-21)
(-3.62695e-08 -1.97661e-07 7.66448e-21)
(-2.40193e-08 -1.42819e-07 3.53532e-23)
(-1.62734e-08 -1.06582e-07 9.65191e-22)
(-1.49549e-08 -8.19204e-08 2.10509e-21)
(-1.86125e-08 -6.82095e-08 -1.73395e-21)
(-1.90669e-08 -6.84444e-08 3.37384e-21)
(-1.66235e-08 -6.84041e-08 3.64847e-21)
(-1.84351e-08 -7.08042e-08 7.59454e-22)
(-1.34995e-08 -8.32739e-08 -4.98289e-21)
(3.88985e-09 -1.6306e-07 7.44607e-21)
(-1.386e-08 -1.21565e-07 1.63733e-21)
(-2.18597e-08 -1.15935e-07 1.24668e-22)
(-1.85198e-08 -7.9941e-08 1.69178e-21)
(-1.58257e-08 -6.59793e-08 9.49707e-22)
(-1.35441e-08 -6.32372e-08 -3.01532e-22)
(-1.80495e-08 -6.43708e-08 2.08233e-21)
(-1.60712e-08 -6.80247e-08 9.08728e-22)
(-1.67173e-08 -8.21057e-08 0)
(8.20529e-09 -1.16699e-07 6.32833e-21)
(-3.30137e-09 -9.89049e-08 1.09406e-21)
(-2.15498e-08 -7.246e-08 -1.004e-21)
(-7.75268e-09 -5.69433e-08 -5.10084e-21)
(-1.56936e-08 -5.85922e-08 -1.30141e-22)
(-1.33104e-08 -5.96389e-08 1.5877e-21)
(-1.8152e-08 -6.23164e-08 -1.28013e-21)
(-2.64804e-09 -6.90078e-08 0)
(1.47563e-08 -1.33444e-07 6.72078e-21)
(9.97876e-09 -1.11668e-07 0)
(-3.89459e-09 -8.50831e-08 8.82784e-22)
(-1.68195e-08 -6.91559e-08 -8.07152e-22)
(-9.94962e-09 -5.27371e-08 1.42619e-21)
(-1.15808e-08 -5.03617e-08 -2.59819e-21)
(-9.38542e-09 -5.28755e-08 0)
(-1.5088e-08 -5.51598e-08 2.88651e-21)
(-1.27254e-08 -5.76852e-08 -1.45731e-21)
(-4.1292e-09 -6.60358e-08 0)
(-4.90023e-09 -6.53156e-08 -1.72571e-21)
(2.92386e-08 -5.39476e-08 0)
(2.07447e-08 -5.21125e-08 0)
(4.96832e-09 -7.82617e-08 0)
(-1.86912e-08 -6.25413e-08 4.52607e-22)
(-3.50498e-09 -4.77667e-08 1.33958e-21)
(-6.23186e-09 -4.59193e-08 1.23537e-22)
(-1.1884e-08 -4.80995e-08 0)
(-9.80719e-09 -5.0354e-08 0)
(-1.45859e-08 -5.33044e-08 0)
(-2.41445e-09 -5.2746e-08 0)
(1.89057e-09 -6.08792e-08 -1.66441e-21)
(1.75874e-08 -5.3977e-08 1.54379e-23)
(1.49869e-08 -4.11685e-08 -7.31985e-22)
(5.9676e-09 -5.1682e-08 0)
(1.01825e-08 -5.23126e-08 7.5586e-22)
(-1.54923e-08 -6.05946e-08 -2.27289e-21)
(-4.63541e-09 -3.98952e-08 1.72483e-21)
(-6.70799e-09 -3.9611e-08 6.9688e-23)
(-8.93161e-09 -4.12064e-08 -9.56363e-22)
(-7.37174e-09 -4.38614e-08 -2.81586e-23)
(-1.18592e-08 -4.61101e-08 1.05382e-21)
(-9.86338e-09 -4.84732e-08 0)
(-1.24988e-08 -5.37672e-08 -1.34402e-21)
(2.28744e-09 -4.84719e-08 0)
(5.39264e-09 -4.68091e-08 0)
(1.45976e-08 -2.27873e-08 1.2888e-23)
(1.81855e-08 -2.30862e-08 -1.4773e-21)
(1.37686e-08 -3.0696e-08 0)
(4.51871e-09 -5.03371e-08 7.17641e-22)
(-1.63862e-08 -5.5463e-08 -1.20539e-21)
(-3.32797e-11 -3.37845e-08 -1.80662e-22)
(-7.23642e-09 -3.76993e-08 0)
(-5.5055e-09 -3.74926e-08 -8.68075e-22)
(-9.78822e-09 -3.97695e-08 4.82764e-23)
(-8.18225e-09 -4.23559e-08 1.03541e-21)
(-1.21812e-08 -4.42043e-08 0)
(-1.4316e-08 -5.03739e-08 1.05233e-21)
(1.5784e-10 -4.31678e-08 -1.84667e-21)
(1.12206e-08 -2.34267e-08 -7.36305e-22)
(1.28788e-08 -2.1298e-08 -5.19773e-23)
(7.69443e-09 -1.62674e-08 0)
(5.5024e-09 -2.82522e-08 0)
(7.39395e-09 -1.89781e-08 -1.20804e-21)
(9.92509e-09 -3.13804e-08 -9.24882e-22)
(-1.29768e-08 -5.2961e-08 -8.02415e-23)
(-2.39595e-09 -3.0356e-08 2.45859e-21)
(-6.48678e-09 -2.77204e-08 -3.49518e-21)
(-3.78326e-09 -3.15449e-08 -1.87156e-22)
(-8.21474e-09 -3.35918e-08 4.89919e-23)
(-6.99266e-09 -3.6566e-08 2.58978e-23)
(-1.03098e-08 -3.85691e-08 0)
(-1.03871e-08 -4.67105e-08 3.36812e-21)
(-8.61141e-09 -4.00865e-08 0)
(4.0868e-09 -3.69473e-08 -6.45994e-24)
(1.08084e-08 -1.61924e-08 0)
(5.92167e-09 -2.04725e-08 -4.72531e-22)
(6.34394e-09 -1.57606e-08 -8.43548e-22)
(6.83189e-09 -1.57698e-08 0)
(7.06296e-09 -1.99162e-08 1.5314e-22)
(6.08478e-09 -1.76107e-08 -4.39986e-22)
(2.89469e-09 -3.00609e-08 -2.58901e-23)
(-1.45361e-08 -4.86723e-08 0)
(6.23131e-11 -2.44507e-08 3.80004e-22)
(-4.44161e-09 -2.23952e-08 -1.09491e-21)
(-8.29607e-09 -2.59147e-08 -2.28506e-21)
(-7.65873e-09 -3.15409e-08 1.27023e-21)
(-9.39082e-09 -3.31165e-08 0)
(-7.86088e-09 -3.5767e-08 0)
(-1.19325e-08 -4.23638e-08 1.58008e-21)
(-1.0379e-08 -3.73005e-08 0)
(2.89004e-09 -2.62956e-08 7.7838e-22)
(4.99238e-09 -1.54775e-08 0)
(5.44706e-09 -1.66792e-08 2.96211e-22)
(3.36154e-09 -1.67626e-08 -3.11355e-22)
(4.44628e-09 -1.40817e-08 0)
(2.61642e-09 -1.55681e-08 2.67011e-22)
(1.23304e-09 -1.83537e-08 0)
(2.89888e-09 -1.52668e-08 0)
(4.00246e-09 -1.93221e-08 0)
(-1.10654e-08 -4.57862e-08 0)
(-1.64822e-09 -2.54874e-08 -4.23018e-22)
(-7.33848e-09 -1.92894e-08 0)
(-1.08601e-08 -1.94942e-08 2.94257e-22)
(-9.04411e-09 -2.37998e-08 -2.10802e-21)
(-7.08276e-09 -2.8898e-08 1.20314e-21)
(-8.97413e-09 -3.18287e-08 0)
(-9.99369e-09 -4.03579e-08 -1.40009e-21)
(-8.87913e-09 -3.58249e-08 1.26425e-21)
(2.81345e-09 -1.41804e-08 0)
(2.91432e-09 -1.45919e-08 -7.67845e-22)
(-1.51967e-10 -1.57173e-08 4.41132e-22)
(1.31096e-09 -1.39329e-08 0)
(8.62402e-10 -1.41116e-08 0)
(1.65815e-09 -1.40215e-08 0)
(-1.92395e-09 -1.86013e-08 0)
(-1.25539e-08 -4.17717e-08 -2.38934e-23)
(-1.51135e-09 -1.5812e-08 1.03673e-22)
(-7.3979e-09 -1.72814e-08 -5.59847e-23)
(-1.03832e-08 -1.48218e-08 -1.81787e-22)
(-9.57418e-09 -1.78229e-08 0)
(-1.28012e-08 -1.89899e-08 4.13048e-22)
(-1.1005e-08 -2.61144e-08 -1.22309e-21)
(-9.76339e-09 -2.97958e-08 0)
(-1.07028e-08 -3.68037e-08 -9.00759e-22)
(-1.04107e-08 -3.29525e-08 3.4462e-21)
(-1.2804e-09 -1.87152e-08 0)
(-5.49513e-10 -1.52558e-08 -5.33795e-22)
(-4.97475e-09 -1.61939e-08 -9.30153e-22)
(-1.76524e-09 -1.23383e-08 0)
(-2.22427e-09 -1.21655e-08 1.90123e-22)
(-4.66107e-09 -1.2862e-08 5.58938e-22)
(-1.43488e-09 -1.34159e-08 0)
(-2.27644e-09 -1.35254e-08 4.29731e-22)
(-9.85289e-09 -3.9101e-08 0)
(-6.71598e-09 -1.65033e-08 -1.95229e-21)
(-1.19223e-08 -1.48403e-08 -9.00556e-23)
(-8.48305e-09 -1.68666e-08 -8.8932e-23)
(-1.62327e-08 -1.42046e-08 1.06244e-21)
(-1.5447e-08 -1.65536e-08 0)
(-1.03315e-08 -2.27694e-08 3.53284e-22)
(-1.31634e-08 -1.64712e-08 0)
(-9.67483e-09 -2.43981e-08 -1.11185e-21)
(-1.04234e-08 -2.53116e-08 0)
(-9.08321e-09 -3.47184e-08 -8.58626e-22)
(-9.5291e-09 -3.05921e-08 1.42041e-21)
(-3.68742e-09 -2.11149e-08 0)
(-2.38426e-09 -1.53205e-08 -7.21745e-22)
(-8.03786e-09 -2.0272e-08 0)
(-3.96692e-09 -1.27602e-08 4.4756e-23)
(-4.18691e-09 -1.17408e-08 7.9293e-23)
(-5.83471e-09 -1.05191e-08 -2.51821e-22)
(-3.42785e-09 -1.41721e-08 0)
(-9.98617e-09 -1.1798e-08 -2.06713e-23)
(-1.08472e-08 -3.58789e-08 0)
(-1.11133e-08 -1.0445e-08 -1.71172e-21)
(-1.22206e-08 -1.23605e-08 -1.05722e-22)
(-1.72978e-08 -1.0765e-08 0)
(-1.57474e-08 -1.21209e-08 1.1164e-21)
(-1.26452e-08 -1.88301e-08 -2.4819e-22)
(-2.16688e-08 -1.33677e-08 -2.89387e-21)
(-1.19738e-08 -2.29255e-08 0)
(-1.14103e-08 -2.33924e-08 0)
(-9.8278e-09 -3.17114e-08 2.68248e-23)
(-9.69234e-09 -2.69404e-08 0)
(-9.07561e-09 -2.85958e-08 -2.60979e-21)
(-5.01942e-09 -1.45063e-08 0)
(-9.72591e-09 -2.28143e-08 -1.39284e-21)
(-8.87843e-09 -1.76287e-08 -3.01135e-22)
(-6.0244e-09 -1.30417e-08 0)
(-6.8832e-09 -1.08916e-08 3.7723e-23)
(-8.25471e-09 -9.88003e-09 0)
(-1.23716e-08 -1.01558e-08 -1.98274e-22)
(-1.10716e-08 -8.31727e-09 0)
(-8.64829e-09 -3.32566e-08 -1.72685e-23)
(-2.0161e-08 -1.04793e-08 0)
(-1.68359e-08 -1.2696e-08 0)
(-1.88608e-08 -1.07761e-08 -1.15443e-22)
(-2.5722e-08 -1.22289e-08 0)
(-1.69706e-08 -1.74172e-08 -2.2204e-22)
(-1.78613e-08 -1.4786e-08 -2.12009e-21)
(-2.33231e-08 -1.10521e-08 -1.38505e-22)
(-1.30527e-08 -1.97543e-08 0)
(-1.35795e-08 -1.94549e-08 0)
(-9.09067e-09 -2.98705e-08 0)
(-1.11446e-08 -2.49498e-08 0)
(-9.71201e-09 -2.56576e-08 -1.54933e-21)
(-7.10865e-09 -3.626e-08 -3.93219e-21)
(-7.27435e-09 -1.62192e-08 5.04288e-22)
(-1.38555e-08 -2.84866e-08 0)
(-1.34468e-08 -1.99838e-08 -2.42509e-23)
(-7.75183e-09 -1.42574e-08 4.56912e-22)
(-1.00692e-08 -1.27112e-08 -8.95339e-22)
(-1.05752e-08 -1.07129e-08 1.73095e-22)
(-1.39542e-08 -8.23024e-09 0)
(-2.32077e-08 -1.04088e-08 0)
(-9.32967e-09 -3.05288e-08 -2.16966e-23)
(-1.80579e-08 -1.28886e-08 0)
(-2.45437e-08 -1.34174e-08 1.49434e-21)
(-2.64278e-08 -1.04532e-08 3.69757e-22)
(-2.72347e-08 -7.24108e-09 9.60234e-22)
(-1.46381e-08 -1.85798e-08 0)
(-2.95271e-08 -1.07996e-08 4.13003e-22)
(-3.82459e-08 -9.32202e-09 -3.92128e-21)
(-1.11577e-08 -2.22274e-08 -6.93575e-22)
(-1.62914e-08 -1.88326e-08 -2.93471e-23)
(-9.59831e-09 -2.71545e-08 0)
(-9.40347e-09 -2.53347e-08 -1.43105e-21)
(-1.12053e-08 -3.23574e-08 1.16085e-21)
(-9.62149e-09 -3.57541e-08 -9.18898e-22)
(-1.41818e-08 -3.14208e-08 1.02154e-21)
(-1.77181e-08 -2.7215e-08 0)
(-1.31507e-08 -1.76177e-08 -5.34541e-22)
(-1.52008e-08 -2.53916e-08 9.18855e-22)
(-1.14772e-08 -1.50747e-08 -5.12084e-22)
(-1.26639e-08 -1.12583e-08 -5.50002e-22)
(-1.19154e-08 -1.30162e-08 -1.37525e-21)
(-1.20085e-08 -1.0085e-08 -2.41877e-22)
(-1.45573e-08 -9.99972e-09 4.99875e-23)
(-2.19831e-08 -1.09151e-08 0)
(-2.87847e-08 -2.34474e-09 1.63758e-21)
(-2.5992e-08 -5.61376e-09 0)
(-8.35231e-09 -2.8392e-08 0)
(-3.14991e-08 -7.20095e-09 4.56546e-22)
(-2.91562e-08 -1.19292e-08 9.39413e-22)
(-3.05133e-08 -8.9088e-09 1.109e-21)
(-1.81858e-08 -1.46722e-08 -3.26215e-23)
(-3.38505e-08 -1.18618e-08 5.12382e-22)
(-2.55836e-08 -1.33132e-08 2.24584e-22)
(-4.54188e-08 -1.50354e-08 0)
(-3.57571e-08 -8.78337e-09 -3.576e-21)
(-1.5338e-08 -1.90433e-08 -6.38188e-22)
(-1.85151e-08 -1.57709e-08 0)
(-9.58131e-09 -2.28601e-08 -6.9664e-22)
(-1.10818e-08 -4.32055e-08 0)
(-1.60552e-08 -4.17869e-08 0)
(-2.07745e-08 -4.15863e-08 -1.85536e-21)
(-1.74893e-08 -1.76782e-08 -1.79967e-21)
(-2.20686e-08 -2.85143e-08 6.42556e-22)
(-1.56186e-08 -1.34451e-08 -1.15366e-22)
(-1.63196e-08 -1.60844e-08 -1.27297e-21)
(-1.58244e-08 -1.15517e-08 4.93808e-22)
(-1.59948e-08 -9.94565e-09 5.22165e-22)
(-2.39675e-08 -9.6592e-09 0)
(-4.55162e-08 -1.01718e-08 -4.28294e-21)
(-3.45854e-08 -1.27814e-08 0)
(-8.19397e-09 -2.64363e-08 2.19314e-23)
(-4.44532e-08 -1.39733e-08 3.20122e-22)
(-4.66763e-08 -1.10145e-08 -5.03045e-23)
(-2.42627e-08 -1.4871e-08 0)
(-4.58283e-08 -7.6941e-09 1.56623e-21)
(-3.49808e-08 -1.04907e-08 1.98022e-22)
(-6.35202e-08 -6.59465e-09 -2.15251e-21)
(-5.01864e-08 -5.66832e-09 0)
(-5.19299e-08 -8.36143e-09 -1.13077e-21)
(-1.65662e-08 -1.79768e-08 0)
(-1.31979e-08 -1.91845e-08 0)
(-2.32202e-08 -1.61749e-08 -1.31051e-21)
(-1.2337e-08 -2.17069e-08 1.69121e-21)
(-8.38433e-09 -2.48231e-08 3.29485e-23)
(3.8737e-09 -5.07989e-08 0)
(-1.69978e-08 -4.48044e-08 0)
(-2.43887e-08 -4.33158e-08 0)
(-2.60251e-08 -4.02099e-08 -1.68486e-21)
(-2.15735e-08 -2.43941e-08 -9.93896e-22)
(-2.26184e-08 -2.64969e-08 -1.93599e-21)
(-2.37485e-08 -3.88463e-08 0)
(-1.70245e-08 -1.18603e-08 -1.06273e-22)
(-1.68451e-08 -1.43004e-08 0)
(-2.22069e-08 -1.2621e-08 0)
(-3.32636e-08 -1.52825e-08 4.95225e-22)
(-4.76873e-08 -7.30408e-09 4.0585e-21)
(-4.70248e-08 -5.79299e-09 -4.74444e-21)
(-4.84977e-08 -9.67192e-09 5.72198e-21)
(-3.67326e-08 -1.16467e-08 8.90505e-22)
(-4.89379e-08 -7.94624e-09 0)
(-2.4314e-08 -1.26843e-08 3.31646e-22)
(-4.023e-08 -1.36569e-08 5.33211e-22)
(-4.86313e-08 -9.87623e-09 1.1542e-21)
(-3.18946e-08 -1.45641e-08 -8.37467e-23)
(-7.96379e-08 -1.86172e-08 -4.58767e-21)
(-5.79695e-08 -1.51771e-08 -1.175e-21)
(-7.12357e-08 -1.66157e-08 2.07056e-21)
(-2.07875e-08 -1.60974e-08 0)
(-1.82675e-08 -1.80748e-08 1.75154e-21)
(-2.19367e-08 -1.55033e-08 -1.78874e-21)
(-1.06542e-08 -2.12827e-08 1.41329e-21)
(-7.3926e-09 -2.36123e-08 -5.61953e-22)
(-9.17137e-09 -3.81547e-08 0)
(-1.6129e-08 -6.25811e-08 -2.85344e-21)
(-2.31878e-08 -6.75131e-08 -4.1732e-21)
(-3.83465e-08 -6.5438e-08 0)
(-2.72943e-08 -2.43698e-08 2.70353e-21)
(-2.80027e-08 -3.59234e-08 7.10198e-22)
(-2.83541e-08 -3.79692e-08 2.15555e-22)
(-2.17881e-08 -1.57757e-08 0)
(-2.31599e-08 -1.68643e-08 3.14938e-22)
(-2.38946e-08 -1.36101e-08 0)
(-3.49928e-08 -1.69786e-08 1.66955e-21)
(-7.24377e-08 -1.64666e-08 -4.3725e-21)
(-7.32383e-08 -1.85344e-08 -4.58189e-21)
(-5.14653e-08 -1.63126e-08 9.92842e-22)
(-4.92559e-08 -2.03274e-08 9.93838e-22)
(-7.09583e-08 -1.71229e-08 -5.08715e-22)
(-5.69328e-08 -9.32269e-09 4.72654e-22)
(-6.76418e-08 -1.38014e-08 -9.80737e-22)
(-3.60231e-08 -1.05177e-08 3.918e-22)
(-9.79417e-08 -7.35796e-09 0)
(-8.46683e-08 -6.78461e-09 -2.38073e-21)
(-7.03047e-08 -8.4492e-09 -1.00468e-21)
(-7.38758e-08 -1.26774e-08 2.12935e-21)
(-1.91807e-08 -1.5992e-08 3.37341e-22)
(-1.66142e-08 -1.72403e-08 1.36207e-21)
(-2.70471e-08 -1.32099e-08 1.6968e-22)
(-9.93499e-09 -2.30148e-08 -1.17729e-21)
(-1.25357e-08 -1.96006e-08 3.00943e-22)
(-4.49065e-08 -5.66655e-08 0)
(-6.83298e-09 -6.05641e-08 0)
(-2.22863e-08 -6.40164e-08 -7.69564e-21)
(-3.04243e-08 -6.90752e-08 6.79639e-21)
(-4.92933e-08 -8.42007e-08 -2.00713e-21)
(-2.9968e-08 -8.49136e-08 1.01938e-20)
(-3.70383e-08 -6.24899e-08 3.54678e-21)
(-3.07515e-08 -3.51065e-08 2.63451e-21)
(-2.55747e-08 -2.28875e-08 2.22554e-21)
(-3.30389e-08 -3.58228e-08 3.40304e-21)
(-3.88225e-08 -5.37978e-08 3.67114e-21)
(-3.39907e-08 -1.96778e-08 1.83417e-21)
(-4.74174e-08 -2.51577e-08 -6.83336e-22)
(-7.45566e-08 -1.81711e-08 0)
(-7.5229e-08 -1.10941e-08 -3.36706e-21)
(-7.3073e-08 -1.60358e-08 -3.8074e-21)
(-7.22927e-08 -2.31241e-08 2.33715e-21)
(-5.11177e-08 -2.13481e-08 0)
(-6.82656e-08 -2.0151e-08 -2.39956e-21)
(-5.02681e-08 -1.61244e-08 0)
(-7.38115e-08 -8.03089e-09 0)
(-3.31621e-08 -1.60422e-08 5.15408e-22)
(-4.81866e-08 -1.4634e-08 4.95446e-22)
(-1.27791e-07 -3.01182e-08 0)
(-9.1777e-08 -2.31367e-08 0)
(-1.15671e-07 -2.70384e-08 -8.90516e-22)
(-1.00489e-07 -2.64619e-08 -4.01315e-21)
(-2.54337e-08 -1.63479e-08 0)
(-1.56633e-08 -2.00025e-08 2.84094e-22)
(-2.35464e-08 -1.75133e-08 -2.76522e-22)
(-9.50778e-09 -2.15463e-08 -6.36967e-22)
(-1.1146e-08 -2.08942e-08 -6.55406e-22)
(-1.96192e-08 -9.08248e-08 0)
(-2.45869e-08 -1.01771e-07 9.37343e-21)
(-3.55544e-08 -1.2698e-07 -9.32614e-21)
(-7.35818e-08 -1.22847e-07 0)
(-6.1636e-08 -9.57237e-08 0)
(-3.99383e-08 -3.77705e-08 -1.75299e-21)
(-3.59527e-08 -2.81501e-08 -1.32764e-22)
(-3.58843e-08 -5.2693e-08 2.15395e-21)
(-3.60086e-08 -2.51476e-08 0)
(-4.87638e-08 -2.95656e-08 0)
(-1.02205e-07 -3.12233e-08 -5.72813e-21)
(-1.10239e-07 -2.70577e-08 0)
(-9.87755e-08 -2.78985e-08 0)
(-7.52656e-08 -2.95535e-08 6.49351e-21)
(-6.75192e-08 -3.51437e-08 1.34544e-21)
(-8.75317e-08 -1.10909e-08 5.86812e-21)
(-6.64835e-08 -1.29116e-08 0)
(-1.00783e-07 -2.77493e-08 1.11072e-21)
(-3.93026e-08 -1.24754e-08 1.16146e-21)
(-5.06045e-08 -1.13969e-08 -1.46399e-21)
(-1.62529e-07 -1.10578e-08 -6.34522e-21)
(-1.33726e-07 -1.60057e-08 -8.44048e-21)
(-1.06399e-07 -1.30043e-08 -6.28154e-21)
(-1.20669e-07 -1.34969e-08 -4.7018e-22)
(-1.02851e-07 -2.30701e-08 1.03923e-21)
(-2.46183e-08 -1.4748e-08 0)
(-1.43224e-08 -1.93791e-08 0)
(-2.0658e-08 -1.83412e-08 6.08624e-22)
(-1.25489e-08 -1.909e-08 -6.16126e-22)
(-3.36525e-08 -1.03772e-07 -3.75587e-21)
(-5.61692e-08 -1.26305e-07 1.3596e-20)
(-9.56137e-08 -1.79608e-07 -6.79339e-21)
(-4.87235e-08 -1.29573e-07 0)
(-5.40076e-08 -1.86933e-07 0)
(-6.40918e-08 -9.33331e-08 0)
(-4.33751e-08 -5.24924e-08 -2.67401e-22)
(-3.72941e-08 -3.71645e-08 -1.58539e-21)
(-3.74449e-08 -2.62042e-08 0)
(-4.48642e-08 -5.36999e-08 2.03946e-21)
(-4.89342e-08 -3.15238e-08 0)
(-6.79523e-08 -4.40019e-08 3.72702e-21)
(-1.1195e-07 -2.08938e-08 -4.87172e-21)
(-1.04195e-07 -3.20467e-08 -7.52568e-22)
(-1.00598e-07 -3.23006e-08 0)
(-9.71676e-08 -3.83281e-08 0)
(-7.60094e-08 -3.1604e-08 5.9109e-21)
(-6.82156e-08 -4.16567e-08 3.6081e-21)
(-1.15382e-07 -3.91287e-08 -1.33289e-21)
(-7.93321e-08 -2.79981e-08 3.32708e-21)
(-6.2051e-08 -1.96206e-08 -6.36908e-22)
(-1.24595e-07 -1.2912e-08 3.97074e-21)
(-4.84286e-08 -1.75221e-08 0)
(-3.61201e-08 -1.56129e-08 1.89722e-21)
(-2.18258e-07 -6.79195e-08 -6.46916e-21)
(-1.50888e-07 -4.67581e-08 -3.3723e-21)
(-1.75942e-07 -4.98643e-08 -9.59993e-21)
(-1.53501e-07 -3.52992e-08 0)
(-1.31645e-07 -3.95368e-08 -2.17871e-21)
(-3.48937e-08 -1.6794e-08 -1.03912e-21)
(-1.89691e-08 -1.86113e-08 5.15411e-22)
(-2.80578e-08 -1.72901e-08 9.3456e-22)
(-9.59168e-09 -2.14556e-08 -1.63384e-23)
(-2.55989e-08 -1.32166e-07 -3.85754e-21)
(-3.76052e-08 -1.78774e-07 1.03777e-20)
(-7.68089e-08 -2.25377e-07 0)
(-8.00957e-08 -1.37548e-07 8.6011e-21)
(-1.32219e-07 -2.37556e-07 0)
(-5.62283e-08 -9.60547e-08 -4.58942e-21)
(-7.89346e-08 -1.35172e-07 8.46194e-21)
(-5.63763e-08 -5.80174e-08 0)
(-4.80368e-08 -4.06934e-08 0)
(-4.60847e-08 -4.01867e-08 0)
(-5.91769e-08 -7.79889e-08 -4.46463e-21)
(-4.90539e-08 -3.83096e-08 0)
(-6.77228e-08 -5.37856e-08 -1.98166e-21)
(-1.41861e-07 -3.00547e-08 -3.76105e-21)
(-1.30573e-07 -5.37435e-08 2.25247e-21)
(-1.22045e-07 -4.05163e-08 -1.98892e-21)
(-9.77864e-08 -4.50794e-08 -1.9657e-21)
(-9.145e-08 -4.87069e-08 0)
(-9.00304e-08 -5.51135e-08 -2.37275e-21)
(-1.45831e-07 -2.34293e-08 -4.60387e-21)
(-1.09377e-07 -1.63306e-08 -1.40349e-21)
(-8.3471e-08 -1.31683e-08 8.88152e-21)
(-1.73463e-07 -5.28442e-08 0)
(-4.90988e-08 -1.50318e-08 -1.2126e-22)
(-4.74612e-08 -1.52027e-08 0)
(-2.36068e-07 -2.05521e-08 0)
(-2.94335e-07 -4.18728e-08 0)
(-1.81019e-07 -2.59626e-08 -3.5133e-21)
(-1.86937e-07 -1.75965e-08 -5.25623e-21)
(-1.58228e-07 -2.49986e-08 -5.1072e-21)
(-1.35097e-07 -3.05517e-08 -2.80628e-21)
(-3.56283e-08 -1.4455e-08 -1.67571e-21)
(-1.5947e-08 -2.05788e-08 0)
(-2.48096e-08 -2.03401e-08 8.93252e-22)
(-3.3324e-08 -2.0791e-08 0)
(-1.39517e-08 -1.98107e-08 -3.57892e-23)
(-6.48857e-08 -1.77407e-07 1.06763e-20)
(-8.94886e-08 -2.28999e-07 0)
(-1.80635e-07 -3.95401e-07 -4.47695e-20)
(-1.0537e-07 -2.0217e-07 0)
(-1.1683e-07 -3.63829e-07 1.38288e-20)
(-8.41065e-08 -2.54025e-07 0)
(-8.53913e-08 -1.17753e-07 3.96377e-21)
(-8.18624e-08 -1.32847e-07 2.99149e-22)
(-5.18136e-08 -5.83279e-08 0)
(-5.67183e-08 -7.66964e-08 0)
(-6.75302e-08 -5.61194e-08 -2.0442e-21)
(-9.23976e-08 -7.78741e-08 -4.44318e-21)
(-1.24502e-07 -4.62745e-08 8.31021e-22)
(-1.47829e-07 -4.81052e-08 -3.81863e-21)
(-1.30961e-07 -5.88228e-08 -5.41017e-21)
(-1.50338e-07 -4.77013e-08 2.19896e-21)
(-1.20275e-07 -6.40183e-08 -4.79635e-21)
(-9.18855e-08 -5.26601e-08 -1.22222e-21)
(-9.35272e-08 -7.30572e-08 0)
(-1.87762e-07 -6.56484e-08 -3.66422e-21)
(-1.3685e-07 -4.70432e-08 0)
(-1.01183e-07 -3.49596e-08 3.52738e-21)
(-7.49851e-08 -2.64675e-08 2.45685e-21)
(-1.97361e-07 -3.83735e-08 0)
(-7.146e-08 -2.11119e-08 -1.94992e-21)
(-4.30773e-08 -1.98377e-08 0)
(-3.00677e-07 -8.06774e-08 -3.08337e-21)
(-2.62735e-07 -9.23121e-08 0)
(-3.34057e-07 -9.66189e-08 0)
(-2.57723e-07 -6.44007e-08 -3.62387e-21)
(-2.56067e-07 -7.28174e-08 1.0416e-20)
(-1.99068e-07 -5.93238e-08 7.23511e-21)
(-1.62714e-07 -5.46455e-08 -2.05282e-21)
(-2.29516e-08 -1.96918e-08 1.69604e-21)
(-3.40769e-08 -2.07607e-08 2.24847e-21)
(-3.49718e-08 -1.80354e-08 1.98752e-22)
(-1.03152e-08 -2.32724e-08 8.08245e-23)
(-2.00824e-08 -2.54483e-07 0)
(-6.57125e-08 -2.83239e-07 1.39763e-20)
(-9.78717e-08 -3.86628e-07 0)
(-6.45296e-08 -3.82325e-07 -3.37694e-20)
(-1.09137e-07 -1.99149e-07 1.21669e-20)
(-1.82188e-07 -3.98937e-07 3.28265e-20)
(-1.32319e-07 -2.68757e-07 -8.95568e-21)
(-7.61754e-08 -1.18591e-07 8.586e-21)
(-1.1671e-07 -1.80597e-07 1.10981e-20)
(-7.31667e-08 -7.00282e-08 4.03346e-21)
(-7.90313e-08 -9.41486e-08 -5.61814e-22)
(-6.62135e-08 -7.02201e-08 5.07482e-21)
(-8.96398e-08 -9.34601e-08 -6.48891e-21)
(-9.36511e-08 -7.57256e-08 -1.23717e-21)
(-1.68425e-07 -4.47654e-08 0)
(-1.98818e-07 -6.74815e-08 -5.86927e-21)
(-1.61446e-07 -8.53089e-08 -6.6493e-21)
(-1.75028e-07 -7.49407e-08 0)
(-1.19693e-07 -7.11841e-08 -1.24078e-21)
(-1.11272e-07 -7.4245e-08 -1.15996e-22)
(-1.11994e-07 -7.60282e-08 0)
(-2.16348e-07 -5.25834e-08 -3.61077e-21)
(-1.60028e-07 -3.59105e-08 0)
(-1.22831e-07 -2.63808e-08 -4.43755e-21)
(-9.93678e-08 -2.19628e-08 -2.40149e-22)
(-2.55244e-07 -8.70641e-08 -7.62062e-21)
(-7.71759e-08 -1.54669e-08 2.23665e-21)
(-6.27899e-08 -1.67634e-08 0)
(-3.12819e-07 -4.05516e-08 1.91969e-20)
(-3.49033e-07 -5.32037e-08 -6.46823e-21)
(-3.53865e-07 -8.15702e-08 0)
(-3.79549e-07 -7.53064e-08 -2.22349e-21)
(-2.63499e-07 -5.83197e-08 -7.67028e-21)
(-2.68835e-07 -2.9814e-08 7.10493e-21)
(-2.08751e-07 -4.3816e-08 0)
(-1.87064e-08 -2.38337e-08 1.61187e-21)
(-3.04478e-08 -2.2965e-08 2.16668e-21)
(-5.5757e-08 -2.46924e-08 1.03058e-22)
(-1.64006e-08 -2.20507e-08 -1.37017e-21)
(-6.1946e-08 -2.89925e-07 0)
(-5.79329e-08 -2.76288e-07 1.41852e-20)
(-1.41906e-07 -4.57508e-07 -1.35144e-20)
(2.21809e-08 -4.58129e-07 2.76942e-21)
(-1.34544e-07 -2.62758e-07 -1.51428e-21)
(-1.63622e-07 -4.48592e-07 6.24939e-21)
(-1.47062e-07 -4.04342e-07 1.4782e-20)
(-1.68521e-07 -3.43436e-07 -9.80948e-22)
(-1.11704e-07 -1.49264e-07 9.66345e-22)
(-1.06026e-07 -1.79237e-07 7.44735e-21)
(-7.18791e-08 -9.45819e-08 -5.84971e-21)
(-9.56596e-08 -9.40383e-08 -3.31217e-21)
(-1.21726e-07 -1.21044e-07 0)
(-1.17573e-07 -1.00831e-07 0)
(-2.03137e-07 -8.07157e-08 0)
(-2.01319e-07 -6.30436e-08 2.96311e-21)
(-2.08327e-07 -5.9977e-08 -8.69338e-21)
(-1.75813e-07 -7.81984e-08 -3.75202e-21)
(-1.598e-07 -9.67665e-08 0)
(-1.50795e-07 -1.02173e-07 9.87479e-21)
(-1.15801e-07 -9.96744e-08 0)
(-2.03113e-07 -8.33317e-08 4.03449e-21)
(-2.61782e-07 -1.10336e-07 -8.06531e-21)
(-1.51829e-07 -5.87956e-08 -4.53913e-21)
(-1.16295e-07 -4.2793e-08 -2.22267e-21)
(-9.48936e-08 -3.10011e-08 0)
(-2.76277e-07 -7.57431e-08 -8.11299e-21)
(-7.33485e-08 -2.74616e-08 2.18996e-21)
(-5.70486e-08 -2.27104e-08 0)
(-3.9422e-07 -1.05215e-07 -1.69567e-20)
(-4.37471e-07 -1.26567e-07 1.83011e-20)
(-3.62656e-07 -1.05095e-07 7.8166e-22)
(-3.3592e-07 -1.176e-07 1.51674e-20)
(-4.63676e-07 -1.32413e-07 1.08881e-21)
(-3.44743e-07 -8.53226e-08 1.44912e-20)
(-2.18728e-07 -6.88872e-08 0)
(-2.90433e-08 -2.34088e-08 -2.11415e-21)
(-4.91279e-08 -2.49556e-08 -1.1567e-21)
(-5.13192e-08 -2.69436e-08 -1.20166e-21)
(-1.17609e-08 -2.68056e-08 -1.38119e-21)
(-8.65849e-09 -3.84942e-07 3.02183e-20)
(-7.94566e-09 -3.85686e-07 -2.21615e-20)
(-1.2827e-07 -5.01421e-07 -2.12762e-20)
(-5.54747e-08 -4.17123e-07 -3.2358e-20)
(-1.20564e-07 -5.13027e-07 0)
(-1.62365e-07 -2.70961e-07 5.3493e-21)
(-2.05239e-07 -5.14899e-07 6.11059e-20)
(-2.10969e-07 -4.39669e-07 1.69294e-20)
(-1.59263e-07 -3.42202e-07 0)
(-9.71986e-08 -1.50947e-07 1.32107e-21)
(-1.48175e-07 -2.157e-07 2.98656e-21)
(-1.02436e-07 -1.17984e-07 2.34045e-21)
(-9.1839e-08 -1.18962e-07 0)
(-1.14242e-07 -1.21404e-07 -1.02703e-21)
(-1.16326e-07 -1.52353e-07 0)
(-2.29998e-07 -8.33452e-08 0)
(-2.44946e-07 -8.40114e-08 0)
(-2.12115e-07 -1.07389e-07 -1.03467e-20)
(-1.98022e-07 -1.28292e-07 0)
(-1.48373e-07 -1.18032e-07 1.00007e-20)
(-1.50106e-07 -1.19673e-07 0)
(-2.34231e-07 -7.10506e-08 1.22814e-20)
(-3.40497e-07 -9.8633e-08 2.37567e-21)
(-1.69713e-07 -4.96206e-08 5.00458e-21)
(-1.327e-07 -3.54493e-08 -6.3129e-21)
(-1.06674e-07 -2.61641e-08 -4.87188e-21)
(-3.39463e-07 -1.25121e-07 -2.50604e-21)
(-8.49206e-08 -2.16872e-08 1.22907e-21)
(-8.25405e-08 -2.82432e-08 1.20349e-21)
(-4.5215e-07 -6.60539e-08 -1.71935e-20)
(-4.06456e-07 -4.37004e-08 2.53065e-20)
(-4.6713e-07 -1.03535e-07 3.35e-21)
(-4.53073e-07 -1.4456e-07 8.05083e-22)
(-3.42988e-07 -1.11446e-07 1.25403e-20)
(-3.5225e-07 -2.88694e-08 0)
(-2.70093e-07 -8.77107e-08 0)
(-2.40154e-08 -2.81096e-08 -1.66677e-21)
(-4.1674e-08 -3.19035e-08 -8.48157e-22)
(-7.38989e-08 -2.92586e-08 2.47542e-21)
(-2.16938e-08 -2.61804e-08 -1.5392e-21)
(-1.43989e-08 -3.92055e-07 5.04717e-20)
(-1.92904e-07 -5.31099e-07 4.08293e-20)
(-6.13975e-08 -4.8984e-07 0)
(-1.2686e-07 -5.21993e-07 -8.23762e-20)
(-1.41222e-07 -2.77203e-07 0)
(-2.29786e-07 -5.10833e-07 -5.62495e-20)
(-2.22012e-07 -5.1029e-07 -5.65117e-20)
(-1.96475e-07 -4.40932e-07 0)
(-2.05701e-07 -3.71344e-07 0)
(-1.37844e-07 -1.8495e-07 2.40358e-21)
(-1.31733e-07 -2.17229e-07 3.27618e-21)
(-1.29796e-07 -1.50053e-07 0)
(-1.50972e-07 -1.49974e-07 -5.91112e-21)
(-1.57105e-07 -1.83258e-07 1.34195e-20)
(-2.49537e-07 -7.27355e-08 -5.74499e-21)
(-2.27784e-07 -9.85749e-08 -1.02355e-20)
(-2.74966e-07 -6.79874e-08 0)
(-2.10385e-07 -1.2066e-07 0)
(-1.95332e-07 -1.46779e-07 1.37547e-21)
(-1.88722e-07 -1.51809e-07 -6.32002e-21)
(-1.46318e-07 -1.49894e-07 -1.47313e-21)
(-2.23201e-07 -1.00101e-07 0)
(-2.99712e-07 -1.55608e-07 8.44184e-21)
(-3.43706e-07 -1.20859e-07 2.38947e-21)
(-1.64488e-07 -6.70322e-08 7.22582e-22)
(-1.28265e-07 -4.83616e-08 -1.82212e-21)
(-1.00218e-07 -3.80253e-08 -3.04611e-21)
(-7.64507e-08 -3.16296e-08 -1.83952e-21)
(-5.58423e-07 -1.49657e-07 -1.34845e-20)
(-5.17141e-07 -1.15984e-07 3.68937e-20)
(-6.27015e-07 -1.87667e-07 3.71903e-20)
(-5.20787e-07 -1.15568e-07 2.92212e-20)
(-4.59693e-07 -1.45986e-07 -2.60519e-20)
(-4.78707e-07 -8.63569e-08 1.30544e-20)
(-3.88859e-08 -2.8171e-08 -3.53412e-21)
(-6.1538e-08 -3.26336e-08 -1.39429e-21)
(-6.46552e-08 -3.7452e-08 2.73356e-21)
(-1.46137e-08 -3.37533e-08 -1.77161e-21)
(1.67822e-08 -4.68766e-07 8.99845e-21)
(-1.9799e-07 -5.31446e-07 -3.17122e-20)
(-1.38297e-07 -5.23087e-07 -5.87182e-20)
(-7.33787e-08 -4.89775e-07 -5.06835e-20)
(-1.89514e-07 -5.42258e-07 -5.61091e-20)
(-1.81988e-07 -3.02613e-07 9.6555e-21)
(-2.64255e-07 -5.57074e-07 3.06294e-21)
(-2.37633e-07 -5.07042e-07 0)
(-2.47123e-07 -4.84234e-07 3.50434e-21)
(-1.79128e-07 -3.79037e-07 -8.38922e-21)
(-1.2271e-07 -1.86964e-07 2.92596e-21)
(-1.79438e-07 -2.61673e-07 3.1028e-21)
(-1.46476e-07 -1.86239e-07 8.20806e-21)
(-1.51588e-07 -2.30491e-07 1.55399e-20)
(-2.88429e-07 -1.01683e-07 -1.66517e-20)
(-2.76729e-07 -1.37133e-07 8.69313e-21)
(-2.88383e-07 -7.65217e-08 4.73092e-21)
(-2.5186e-07 -1.51289e-07 3.85076e-21)
(-2.36779e-07 -1.81826e-07 -6.29761e-21)
(-1.85134e-07 -1.726e-07 -6.37928e-21)
(-1.82347e-07 -1.76028e-07 5.89972e-23)
(-2.25742e-07 -9.64844e-08 0)
(-3.46478e-07 -1.44114e-07 -4.16065e-21)
(-4.21048e-07 -1.95738e-07 -2.59228e-20)
(-1.72568e-07 -6.1244e-08 -2.55401e-21)
(-1.34627e-07 -4.3688e-08 0)
(-1.33114e-07 -3.87014e-08 0)
(-9.93549e-08 -2.94511e-08 2.96029e-21)
(-6.60059e-07 -9.69817e-08 3.73638e-20)
(-5.72585e-07 -7.48067e-08 2.19221e-20)
(-5.23087e-07 -4.94192e-08 1.6295e-20)
(-6.57022e-07 -1.6535e-07 -1.44331e-20)
(-6.43644e-07 -2.28313e-07 -1.91029e-20)
(-4.75723e-07 -1.95245e-07 2.90864e-20)
(-4.73071e-07 -3.39523e-08 1.31291e-20)
(-3.03057e-08 -3.69367e-08 -2.64235e-21)
(-5.09743e-08 -4.30575e-08 2.69189e-22)
(-8.07224e-08 -3.69589e-08 -4.90704e-21)
(-2.74914e-08 -3.37709e-08 0)
(1.59191e-08 -4.70846e-07 -8.41778e-20)
(-2.21171e-07 -5.52668e-07 1.36519e-20)
(-1.41622e-07 -5.60191e-07 -6.36168e-20)
(-1.02078e-07 -5.58467e-07 -1.87506e-20)
(-1.9835e-07 -5.56153e-07 0)
(-1.64568e-07 -3.043e-07 9.57207e-21)
(-2.76499e-07 -5.46922e-07 1.20572e-20)
(-2.72488e-07 -5.50701e-07 0)
(-2.69053e-07 -5.46264e-07 3.97786e-21)
(-2.13321e-07 -4.81227e-07 -3.64513e-21)
(-1.99311e-07 -3.82557e-07 -3.45726e-20)
(-1.68266e-07 -2.26014e-07 1.84791e-20)
(-1.5817e-07 -2.63382e-07 0)
(-1.86898e-07 -2.11439e-07 6.84315e-22)
(-1.94063e-07 -2.51286e-07 2.42529e-21)
(-2.82888e-07 -1.0133e-07 -2.13219e-21)
(-2.80782e-07 -1.33464e-07 0)
(-2.78286e-07 -1.38542e-07 8.74776e-21)
(-4.73673e-07 -3.71603e-08 -1.28284e-20)
(-2.50781e-07 -1.72395e-07 3.87867e-21)
(-2.34215e-07 -2.01343e-07 -4.62828e-21)
(-2.13041e-07 -2.06127e-07 3.27176e-21)
(-1.80511e-07 -2.13733e-07 5.13031e-21)
(-3.13205e-07 -1.47639e-07 0)
(-2.23818e-07 -9.50153e-08 -1.24573e-20)
(-4.66509e-07 -2.21914e-07 -2.09505e-20)
(-3.19536e-07 -1.79854e-07 0)
(-6.04868e-07 -1.83998e-07 1.31547e-19)
(-1.69651e-07 -6.99029e-08 -2.53119e-21)
(-1.27711e-07 -4.03093e-08 0)
(-8.66613e-08 -4.66807e-08 -1.29507e-24)
(-1.24375e-07 -5.32464e-08 3.06703e-21)
(-6.90763e-07 -1.44876e-07 3.28298e-20)
(-7.01353e-07 -1.38639e-07 3.29819e-20)
(-6.4398e-07 -1.16812e-07 1.2722e-20)
(-8.79813e-07 -2.47918e-07 4.96351e-21)
(-6.39357e-07 -2.28484e-07 -5.87743e-21)
(-6.35259e-07 -2.08207e-07 -4.35902e-21)
(-6.25105e-07 -9.02991e-08 2.46597e-20)